
                                 *****************
                                 * O   R   C   A *
                                 *****************

           --- An Ab Initio, DFT and Semiempirical electronic structure package ---

                  #######################################################
                  #                        -***-                        #
                  #  Department of molecular theory and spectroscopy    #
                  #              Directorship: Frank Neese              #
                  # Max Planck Institute for Chemical Energy Conversion #
                  #                  D-45470 Muelheim/Ruhr              #
                  #                       Germany                       #
                  #                                                     #
                  #                  All rights reserved                #
                  #                        -***-                        #
                  #######################################################


                         Program Version 3.0.3 - RELEASE   -


 With contributions from (in alphabetic order):
   Ute Becker             : Parallelization
   Dmytro Bykov           : SCF Hessian
   Dmitry Ganyushin       : Spin-Orbit,Spin-Spin,Magnetic field MRCI
   Andreas Hansen         : Spin unrestricted coupled pair/coupled cluster methods
   Dimitrios Liakos       : Extrapolation schemes; parallel MDCI
   Robert Izsak           : Overlap fitted RIJCOSX, COSX-SCS-MP3
   Christian Kollmar      : KDIIS, OOCD, Brueckner-CCSD(T), CCSD density
   Simone Kossmann        : Meta GGA functionals, TD-DFT gradient, OOMP2, MP2 Hessian
   Taras Petrenko         : DFT Hessian,TD-DFT gradient, ASA and ECA modules, normal mode analysis, Resonance Raman, ABS, FL, XAS/XES, NRVS
   Christoph Reimann      : Effective Core Potentials
   Michael Roemelt        : Restricted open shell CIS
   Christoph Riplinger    : Improved optimizer, TS searches, QM/MM, DLPNO-CCSD
   Barbara Sandhoefer     : DKH picture change effects
   Igor Schapiro          : Molecular dynamics
   Kantharuban Sivalingam : CASSCF convergence, NEVPT2
   Boris Wezisla          : Elementary symmetry handling
   Frank Wennmohs         : Technical directorship


 We gratefully acknowledge several colleagues who have allowed us to
 interface, adapt or use parts of their codes:
   Stefan Grimme, W. Hujo, H. Kruse, T. Risthaus : VdW corrections, initial TS optimization,
                                                   DFT functionals, gCP
   Ed Valeev                                     : LibInt (2-el integral package), F12 methods
   Garnet Chan, S. Sharma, R. Olivares           : DMRG
   Ulf Ekstrom                                   : XCFun DFT Library
   Mihaly Kallay                                 : mrcc  (arbitrary order and MRCC methods)
   Andreas Klamt, Michael Diedenhofen            : otool_cosmo (COSMO solvation model)
   Frank Weinhold                                : gennbo (NPA and NBO analysis)
   Christopher J. Cramer and Donald G. Truhlar   : smd solvation model


 Your calculation uses the libint2 library for the computation of 2-el integrals
 For citations please refer to: http://libint.valeyev.net

 This ORCA versions uses:
   CBLAS   interface :  Fast vector & matrix operations
   LAPACKE interface :  Fast linear algebra routines
   SCALAPACK package :  Parallel linear algebra routines


leaving
================================================================================
                                        WARNINGS
                       Please study these warnings very carefully!
================================================================================
Now building the actual basis set

WARNING: Direct SCF is incompatible with Method<>HF and Method<>DFT
  ===> : conventional SCF is chosen

WARNING: The NDO methods need Guess=HUECKEL or Guess=HCORE or Guess=MOREAD
  ===> : Guess is set to Hueckel

WARNING: The NDO methods need %rel::SOCType==1
  ===> : %rel::SOCType is set to 1

WARNING: The NDO methods cannot have frozencore=1
  ===> : %method FrozenCore=0 end


INFO   : the flag for use of LIBINT has been found!

================================================================================
                                       INPUT FILE
================================================================================
NAME = /Users/mattyjones/GoogleDrive/Boise/Code/MorphCT/tests/output_EZ/donor_polymer/chromophores/input_orca/pair/00007-00020.inp
|  1> # ================================================================
|  2> # Orca input file made by Matty Jones
|  3> # ================================================================
|  4> ! ZINDO/S 
|  5> ! NOPOP
|  6> ! NOMOPRINT
|  7> * xyz 0   1
|  8>  C  -25.29354  -1.04412  2.48060
|  9>  C  -24.04415  -0.42543  2.41634
| 10>  C  -23.06283  -1.00001  3.28301
| 11>  C  -23.53975  -2.07786  4.03542
| 12>  S  -25.12816  -2.26064  3.59496
| 13>  H  -23.87051  0.56365  1.88631
| 14>  C  -21.60790  -0.30881  3.24254
| 15>  C  -21.02938  0.04496  1.65185
| 16>  C  -21.32533  1.49289  0.75843
| 17>  H  -21.42693  2.31763  1.56636
| 18>  H  -20.34485  1.67990  0.16861
| 19>  H  -19.88061  -0.02081  1.73337
| 20>  H  -21.41573  -0.80780  0.98009
| 21>  H  -21.60946  0.68748  3.83691
| 22>  H  -20.82013  -1.02417  3.70966
| 23>  C  -22.56420  1.68937  -0.29497
| 24>  C  -22.50015  3.10871  -1.23704
| 25>  C  -21.92717  3.04460  -2.82126
| 26>  H  -22.57707  2.31068  -3.43515
| 27>  H  -20.82630  2.69246  -2.82100
| 28>  H  -21.99620  4.10323  -3.28733
| 29>  H  -23.54654  3.57711  -1.25907
| 30>  H  -21.75250  3.78322  -0.68574
| 31>  H  -22.59686  0.79369  -1.02204
| 32>  H  -23.56780  1.76101  0.26652
| 33>  C  20.66306  -5.50159  -0.68482
| 34>  C  21.42859  -4.33465  -0.67394
| 35>  C  20.84333  -3.25930  0.06454
| 36>  C  19.60944  -3.57873  0.63970
| 37>  S  19.31171  -5.15270  0.21030
| 38>  H  22.45431  -4.22980  -1.16299
| 39>  C  21.76972  -1.92154  0.03066
| 40>  C  21.35031  -0.30342  -0.25093
| 41>  C  22.79211  0.62418  -0.33098
| 42>  H  22.53297  1.70292  -0.01570
| 43>  H  23.55450  0.18185  0.41209
| 44>  H  20.78972  -0.22269  -1.24902
| 45>  H  20.70897  0.08648  0.61358
| 46>  H  22.30628  -1.88096  1.06884
| 47>  H  22.62157  -2.09542  -0.76374
| 48>  C  23.42718  0.62754  -1.84000
| 49>  C  24.91151  1.40115  -2.11033
| 50>  C  24.82092  3.01531  -2.57431
| 51>  H  23.83892  3.19905  -3.15768
| 52>  H  25.72501  3.26859  -3.25235
| 53>  H  24.84505  3.68613  -1.63175
| 54>  H  25.53035  1.33693  -1.14106
| 55>  H  25.45539  0.82623  -2.95053
| 56>  H  23.57485  -0.47069  -2.17841
| 57>  H  22.66232  1.12576  -2.55379
| 58>  H  -26.16452  -0.78988  1.93254
| 59>  H  -22.99922  -2.65687  4.73982
| 60>  H  20.89637  -6.41774  -1.16424
| 61>  H  18.99337  -2.94710  1.22715
| 62> *
| 63> 
| 64>                          ****END OF INPUT****
================================================================================

                       ****************************
                       * Single Point Calculation *
                       ****************************

---------------------------------
CARTESIAN COORDINATES (ANGSTROEM)
---------------------------------
  C    -25.293540   -1.044120    2.480600
  C    -24.044150   -0.425430    2.416340
  C    -23.062830   -1.000010    3.283010
  C    -23.539750   -2.077860    4.035420
  S    -25.128160   -2.260640    3.594960
  H    -23.870510    0.563650    1.886310
  C    -21.607900   -0.308810    3.242540
  C    -21.029380    0.044960    1.651850
  C    -21.325330    1.492890    0.758430
  H    -21.426930    2.317630    1.566360
  H    -20.344850    1.679900    0.168610
  H    -19.880610   -0.020810    1.733370
  H    -21.415730   -0.807800    0.980090
  H    -21.609460    0.687480    3.836910
  H    -20.820130   -1.024170    3.709660
  C    -22.564200    1.689370   -0.294970
  C    -22.500150    3.108710   -1.237040
  C    -21.927170    3.044600   -2.821260
  H    -22.577070    2.310680   -3.435150
  H    -20.826300    2.692460   -2.821000
  H    -21.996200    4.103230   -3.287330
  H    -23.546540    3.577110   -1.259070
  H    -21.752500    3.783220   -0.685740
  H    -22.596860    0.793690   -1.022040
  H    -23.567800    1.761010    0.266520
  C     20.663060   -5.501590   -0.684820
  C     21.428590   -4.334650   -0.673940
  C     20.843330   -3.259300    0.064540
  C     19.609440   -3.578730    0.639700
  S     19.311710   -5.152700    0.210300
  H     22.454310   -4.229800   -1.162990
  C     21.769720   -1.921540    0.030660
  C     21.350310   -0.303420   -0.250930
  C     22.792110    0.624180   -0.330980
  H     22.532970    1.702920   -0.015700
  H     23.554500    0.181850    0.412090
  H     20.789720   -0.222690   -1.249020
  H     20.708970    0.086480    0.613580
  H     22.306280   -1.880960    1.068840
  H     22.621570   -2.095420   -0.763740
  C     23.427180    0.627540   -1.840000
  C     24.911510    1.401150   -2.110330
  C     24.820920    3.015310   -2.574310
  H     23.838920    3.199050   -3.157680
  H     25.725010    3.268590   -3.252350
  H     24.845050    3.686130   -1.631750
  H     25.530350    1.336930   -1.141060
  H     25.455390    0.826230   -2.950530
  H     23.574850   -0.470690   -2.178410
  H     22.662320    1.125760   -2.553790
  H    -26.164520   -0.789880    1.932540
  H    -22.999220   -2.656870    4.739820
  H     20.896370   -6.417740   -1.164240
  H     18.993370   -2.947100    1.227150

----------------------------
CARTESIAN COORDINATES (A.U.)
----------------------------
  NO LB      ZA    FRAG    MASS        X           Y           Z
   0 C     4.0000    0    12.011        -47.797863557382534         -1.973100850949857          4.687654647805057
   1 C     4.0000    0    12.011        -45.436858622922657         -0.803946189154118          4.566220846439277
   2 C     4.0000    0    12.011        -43.582432573183063         -1.889745031182591          6.203989794924809
   3 C     4.0000    0    12.011        -44.483680760972788         -3.926586344629611          7.625838635348498
   4 S     6.0000    0    32.060        -47.485340649354640         -4.271990487387738          6.793489862401543
   5 H     1.0000    0     1.008        -45.108726577028577          1.065144135384714          3.564609303676996
   6 C     4.0000    0    12.011        -40.833013329157012         -0.583566327416222          6.127512578285016
   7 C     4.0000    0    12.011        -39.739768966160888          0.084962086981099          3.121544114317820
   8 C     4.0000    0    12.011        -40.299033415494890          2.821153248069697          1.433224991749895
   9 H     1.0000    0     1.008        -40.491029590701281          4.379685979759910          2.959991427128892
  10 H     1.0000    0     1.008        -38.446194735707778          3.174550932374311          0.318626723440462
  11 H     1.0000    0     1.008        -37.568908275296174         -0.039325200846901          3.275594588755080
  12 H     1.0000    0     1.008        -40.469864658001370         -1.526520770981587          1.852101686594880
  13 H     1.0000    0     1.008        -40.835961301925927          1.299148922548182          7.250709100503790
  14 H     1.0000    0     1.008        -39.344343772637870         -1.935400814578128          7.010241449962311
  15 C     4.0000    0    12.011        -42.640158431025903          3.192446638862545         -0.557412517722752
  16 C     4.0000    0    12.011        -42.519121472148257          5.874610529782334         -2.337666816705945
  17 C     4.0000    0    12.011        -41.436346191934049          5.753460187336643         -5.331408752586671
  18 H     1.0000    0     1.008        -42.664479206369471          4.366552383129158         -6.491492728939588
  19 H     1.0000    0     1.008        -39.356003382884161          5.088012026537613         -5.330917423791851
  20 H     1.0000    0     1.008        -41.566793986958636          7.753980964489697         -6.212153411823348
  21 H     1.0000    0     1.008        -44.496512001422111          6.759758250911048         -2.379297483436230
  22 H     1.0000    0     1.008        -41.106267728122027          7.149249704373558         -1.295860799075159
  23 H     1.0000    0     1.008        -42.701876886559774          1.499856735231958         -1.931375697912876
  24 H     1.0000    0     1.008        -44.536687579029270          3.327826619096663          0.503649809212692
  25 C     4.0000    0    12.011         39.047524488782862        -10.396498401119819         -1.294122251031951
  26 C     4.0000    0    12.011         40.494166536083597         -8.191301386401753         -1.273562030694888
  27 C     4.0000    0    12.011         39.388185418944843         -6.159184388289535          0.121962924683278
  28 C     4.0000    0    12.011         37.056471239560750         -6.762819607248002          1.208857807869425
  29 S     6.0000    0    32.060         36.493843077708377         -9.737191850256034          0.397409405963639
  30 H     1.0000    0     1.008         42.432496426169301         -7.993163601260110         -2.197732596489077
  31 C     4.0000    0    12.011         41.138808812148149         -3.631184355375042          0.057939003266026
  32 C     4.0000    0    12.011         40.346238774320241         -0.573380703554386         -0.474188978784860
  33 C     4.0000    0    12.011         43.070845914207901          1.179529258270967         -0.625461555805256
  34 H     1.0000    0     1.008         42.581142283863542          3.218052427977178         -0.029668700302564
  35 H     1.0000    0     1.008         44.511554221448122          0.343646697453580          0.778737242527609
  36 H     1.0000    0     1.008         39.286877200905323         -0.420823112762924         -2.360305735790322
  37 H     1.0000    0     1.008         39.134281815591187          0.163423516061510          1.159498161251402
  38 H     1.0000    0     1.008         42.152760266564940         -3.554499268860517          2.019814880980391
  39 H     1.0000    0     1.008         42.748572019328968         -3.959769935541269         -1.443259437521017
  40 C     4.0000    0    12.011         44.270954290077270          1.185878738080942         -3.477096086415103
  41 C     4.0000    0    12.011         47.075931482440602          2.647789772543761         -3.987945752198035
  42 C     4.0000    0    12.011         46.904741191968675          5.698110108874089         -4.864740883814817
  43 H     1.0000    0     1.008         45.049030128458007          6.045328388720780         -5.967150418560458
  44 H     1.0000    0     1.008         48.613223692385539          6.176739944073664         -6.146050791658783
  45 H     1.0000    0     1.008         46.950340283580196          6.965776194031143         -3.083560619026002
  46 H     1.0000    0     1.008         48.245369603156426          2.526431560223339         -2.156290902372183
  47 H     1.0000    0     1.008         48.103715732157696          1.561348423629756         -5.575693649918671
  48 H     1.0000    0     1.008         44.550010148273422         -0.889475193975394         -4.116598307395393
  49 H     1.0000    0     1.008         42.825578359286261          2.127378092523188         -4.825963703546753
  50 H     1.0000    0     1.008        -49.443777225505265         -1.492656878661718          3.651971342848176
  51 H     1.0000    0     1.008        -43.462227093804330         -5.020756673431356          8.956961724082626
  52 H     1.0000    0     1.008         39.488416493088025        -12.127770998711775         -2.200094754156478
  53 H     1.0000    0     1.008         35.892267660235881         -5.569211889279321          2.318977425241464

--------------------------------
INTERNAL COORDINATES (ANGSTROEM)
--------------------------------
 C      0   0   0   0.000000     0.000     0.000
 C      1   0   0   1.395665     0.000     0.000
 C      2   1   0   1.429772   114.102     0.000
 C      3   2   1   1.398333   113.693     0.000
 S      1   2   3   1.658032   105.480     0.000
 H      2   1   3   1.135501   122.992   191.449
 C      3   2   1   1.611278   115.603   180.259
 C      7   3   2   1.729200   114.391   315.784
 C      8   7   3   1.726930   126.164    87.991
 H      9   8   7   1.158995   104.538    30.531
 H      9   8   7   1.159397   104.685   144.315
 H      8   7   3   1.153535   104.863   209.378
 H      8   7   3   1.152271   105.825   325.051
 H      7   3   2   1.160117   110.751    77.077
 H      7   3   2   1.162120   109.751   197.325
 C      9   8   7   1.638003   124.256   267.344
 C     16   9   8   1.704736   115.267   189.471
 C     17  16   9   1.685873   120.027    99.492
 H     18  17  16   1.156663   109.384    58.873
 H     18  17  16   1.155819   109.578   298.216
 H     18  17  16   1.158742   108.843   178.397
 H     17  16   9   1.146654   108.448   224.058
 H     17  16   9   1.147988   104.376   342.817
 H     16   9   8   1.154097   109.479   310.652
 H     16   9   8   1.152222   110.661    71.193
 C     12   8   7  40.983848   171.351   135.853
 C     26  12   8   1.395673   115.489   122.869
 C     27  26  12   1.429776   114.101    30.258
 C     28  27  26   1.398331   113.693     0.000
 S     26  12   8   1.658044    29.972   199.289
 H     27  26  12   1.141168   124.506   207.735
 C     28  27  26   1.627559   111.990   180.591
 C     32  28  27   1.695143   130.333   134.006
 C     33  32  28   1.716286   108.410   186.267
 H     34  33  32   1.153358   107.698   206.778
 H     34  33  32   1.152843   108.549   325.062
 H     33  32  28   1.147590   109.420   305.483
 H     33  32  28   1.144865   109.771    67.582
 H     32  28  27   1.169342   105.737   257.361
 H     32  28  27   1.177690   107.722    10.118
 C     34  33  32   1.637213   111.713    86.244
 C     41  34  33   1.695519   119.175   184.089
 C     42  41  34   1.681962   115.767   268.293
 H     43  42  41   1.156895   109.709   330.354
 H     43  42  41   1.158131   109.229   210.406
 H     43  42  41   1.157152   109.301    90.621
 H     42  41  34   1.151769   108.105    29.984
 H     42  41  34   1.154242   107.536   147.968
 H     41  34  33   1.158636   108.463   305.264
 H     41  34  33   1.158762   108.216    62.386
 H      1   2   3   1.060007   127.260   180.000
 H      4   3   2   1.060002   127.207   180.000
 H     26  12   8   1.060004   111.101   328.328
 H     29  28  27   1.059998   127.206   180.000

---------------------------
INTERNAL COORDINATES (A.U.)
---------------------------
 C      0   0   0   0.000000     0.000     0.000
 C      1   0   0   2.637425     0.000     0.000
 C      2   1   0   2.701878   114.102     0.000
 C      3   2   1   2.642466   113.693     0.000
 S      1   2   3   3.133226   105.480     0.000
 H      2   1   3   2.145785   122.992   191.449
 C      3   2   1   3.044874   115.603   180.259
 C      7   3   2   3.267715   114.391   315.784
 C      8   7   3   3.263425   126.164    87.991
 H      9   8   7   2.190183   104.538    30.531
 H      9   8   7   2.190943   104.685   144.315
 H      8   7   3   2.179866   104.863   209.378
 H      8   7   3   2.177476   105.825   325.051
 H      7   3   2   2.192304   110.751    77.077
 H      7   3   2   2.196088   109.751   197.325
 C      9   8   7   3.095378   124.256   267.344
 C     16   9   8   3.221484   115.267   189.471
 C     17  16   9   3.185839   120.027    99.492
 H     18  17  16   2.185776   109.384    58.873
 H     18  17  16   2.184181   109.578   298.216
 H     18  17  16   2.189706   108.843   178.397
 H     17  16   9   2.166862   108.448   224.058
 H     17  16   9   2.169383   104.376   342.817
 H     16   9   8   2.180927   109.479   310.652
 H     16   9   8   2.177385   110.661    71.193
 C     12   8   7  77.448248   171.351   135.853
 C     26  12   8   2.637440   115.489   122.869
 C     27  26  12   2.701885   114.101    30.258
 C     28  27  26   2.642462   113.693     0.000
 S     26  12   8   3.133250    29.972   199.289
 H     27  26  12   2.156495   124.506   207.735
 C     28  27  26   3.075641   111.990   180.591
 C     32  28  27   3.203356   130.333   134.006
 C     33  32  28   3.243310   108.410   186.267
 H     34  33  32   2.179531   107.698   206.778
 H     34  33  32   2.178558   108.549   325.062
 H     33  32  28   2.168630   109.420   305.483
 H     33  32  28   2.163482   109.771    67.582
 H     32  28  27   2.209736   105.737   257.361
 H     32  28  27   2.225512   107.722    10.118
 C     34  33  32   3.093884   111.713    86.244
 C     41  34  33   3.204067   119.175   184.089
 C     42  41  34   3.178448   115.767   268.293
 H     43  42  41   2.186214   109.709   330.354
 H     43  42  41   2.188551   109.229   210.406
 H     43  42  41   2.186701   109.301    90.621
 H     42  41  34   2.176528   108.105    29.984
 H     42  41  34   2.181201   107.536   147.968
 H     41  34  33   2.189504   108.463   305.264
 H     41  34  33   2.189743   108.216    62.386
 H      1   2   3   2.003122   127.260   180.000
 H      4   3   2   2.003114   127.207   180.000
 H     26  12   8   2.003117   111.101   328.328
 H     29  28  27   2.003106   127.206   180.000

----------------------------
SLATER BASIS SET DIM= 120
----------------------------
  0 C     2 shells
 l=0 nsto= 1
    2       1.625000000000        1.000000000000
 l=1 nsto= 1
    2       1.625000000000        1.000000000000
  1 C     2 shells
 l=0 nsto= 1
    2       1.625000000000        1.000000000000
 l=1 nsto= 1
    2       1.625000000000        1.000000000000
  2 C     2 shells
 l=0 nsto= 1
    2       1.625000000000        1.000000000000
 l=1 nsto= 1
    2       1.625000000000        1.000000000000
  3 C     2 shells
 l=0 nsto= 1
    2       1.625000000000        1.000000000000
 l=1 nsto= 1
    2       1.625000000000        1.000000000000
  4 S     2 shells
 l=0 nsto= 1
    3       1.925000000000        1.000000000000
 l=1 nsto= 1
    3       1.925000000000        1.000000000000
  5 H     1 shells
 l=0 nsto= 1
    1       1.200000000000        1.000000000000
  6 C     2 shells
 l=0 nsto= 1
    2       1.625000000000        1.000000000000
 l=1 nsto= 1
    2       1.625000000000        1.000000000000
  7 C     2 shells
 l=0 nsto= 1
    2       1.625000000000        1.000000000000
 l=1 nsto= 1
    2       1.625000000000        1.000000000000
  8 C     2 shells
 l=0 nsto= 1
    2       1.625000000000        1.000000000000
 l=1 nsto= 1
    2       1.625000000000        1.000000000000
  9 H     1 shells
 l=0 nsto= 1
    1       1.200000000000        1.000000000000
 10 H     1 shells
 l=0 nsto= 1
    1       1.200000000000        1.000000000000
 11 H     1 shells
 l=0 nsto= 1
    1       1.200000000000        1.000000000000
 12 H     1 shells
 l=0 nsto= 1
    1       1.200000000000        1.000000000000
 13 H     1 shells
 l=0 nsto= 1
    1       1.200000000000        1.000000000000
 14 H     1 shells
 l=0 nsto= 1
    1       1.200000000000        1.000000000000
 15 C     2 shells
 l=0 nsto= 1
    2       1.625000000000        1.000000000000
 l=1 nsto= 1
    2       1.625000000000        1.000000000000
 16 C     2 shells
 l=0 nsto= 1
    2       1.625000000000        1.000000000000
 l=1 nsto= 1
    2       1.625000000000        1.000000000000
 17 C     2 shells
 l=0 nsto= 1
    2       1.625000000000        1.000000000000
 l=1 nsto= 1
    2       1.625000000000        1.000000000000
 18 H     1 shells
 l=0 nsto= 1
    1       1.200000000000        1.000000000000
 19 H     1 shells
 l=0 nsto= 1
    1       1.200000000000        1.000000000000
 20 H     1 shells
 l=0 nsto= 1
    1       1.200000000000        1.000000000000
 21 H     1 shells
 l=0 nsto= 1
    1       1.200000000000        1.000000000000
 22 H     1 shells
 l=0 nsto= 1
    1       1.200000000000        1.000000000000
 23 H     1 shells
 l=0 nsto= 1
    1       1.200000000000        1.000000000000
 24 H     1 shells
 l=0 nsto= 1
    1       1.200000000000        1.000000000000
 25 C     2 shells
 l=0 nsto= 1
    2       1.625000000000        1.000000000000
 l=1 nsto= 1
    2       1.625000000000        1.000000000000
 26 C     2 shells
 l=0 nsto= 1
    2       1.625000000000        1.000000000000
 l=1 nsto= 1
    2       1.625000000000        1.000000000000
 27 C     2 shells
 l=0 nsto= 1
    2       1.625000000000        1.000000000000
 l=1 nsto= 1
    2       1.625000000000        1.000000000000
 28 C     2 shells
 l=0 nsto= 1
    2       1.625000000000        1.000000000000
 l=1 nsto= 1
    2       1.625000000000        1.000000000000
 29 S     2 shells
 l=0 nsto= 1
    3       1.925000000000        1.000000000000
 l=1 nsto= 1
    3       1.925000000000        1.000000000000
 30 H     1 shells
 l=0 nsto= 1
    1       1.200000000000        1.000000000000
 31 C     2 shells
 l=0 nsto= 1
    2       1.625000000000        1.000000000000
 l=1 nsto= 1
    2       1.625000000000        1.000000000000
 32 C     2 shells
 l=0 nsto= 1
    2       1.625000000000        1.000000000000
 l=1 nsto= 1
    2       1.625000000000        1.000000000000
 33 C     2 shells
 l=0 nsto= 1
    2       1.625000000000        1.000000000000
 l=1 nsto= 1
    2       1.625000000000        1.000000000000
 34 H     1 shells
 l=0 nsto= 1
    1       1.200000000000        1.000000000000
 35 H     1 shells
 l=0 nsto= 1
    1       1.200000000000        1.000000000000
 36 H     1 shells
 l=0 nsto= 1
    1       1.200000000000        1.000000000000
 37 H     1 shells
 l=0 nsto= 1
    1       1.200000000000        1.000000000000
 38 H     1 shells
 l=0 nsto= 1
    1       1.200000000000        1.000000000000
 39 H     1 shells
 l=0 nsto= 1
    1       1.200000000000        1.000000000000
 40 C     2 shells
 l=0 nsto= 1
    2       1.625000000000        1.000000000000
 l=1 nsto= 1
    2       1.625000000000        1.000000000000
 41 C     2 shells
 l=0 nsto= 1
    2       1.625000000000        1.000000000000
 l=1 nsto= 1
    2       1.625000000000        1.000000000000
 42 C     2 shells
 l=0 nsto= 1
    2       1.625000000000        1.000000000000
 l=1 nsto= 1
    2       1.625000000000        1.000000000000
 43 H     1 shells
 l=0 nsto= 1
    1       1.200000000000        1.000000000000
 44 H     1 shells
 l=0 nsto= 1
    1       1.200000000000        1.000000000000
 45 H     1 shells
 l=0 nsto= 1
    1       1.200000000000        1.000000000000
 46 H     1 shells
 l=0 nsto= 1
    1       1.200000000000        1.000000000000
 47 H     1 shells
 l=0 nsto= 1
    1       1.200000000000        1.000000000000
 48 H     1 shells
 l=0 nsto= 1
    1       1.200000000000        1.000000000000
 49 H     1 shells
 l=0 nsto= 1
    1       1.200000000000        1.000000000000
 50 H     1 shells
 l=0 nsto= 1
    1       1.200000000000        1.000000000000
 51 H     1 shells
 l=0 nsto= 1
    1       1.200000000000        1.000000000000
 52 H     1 shells
 l=0 nsto= 1
    1       1.200000000000        1.000000000000
 53 H     1 shells
 l=0 nsto= 1
    1       1.200000000000        1.000000000000
------------------------------------------------------------------------------
                           ORCA NDO INTEGRAL CALCULATION
------------------------------------------------------------------------------

--------------
NDO PARAMETERS
--------------

Gamma integral treatment              ... Mataga-Nishimoto
Nuclear repulsuion treatment          ... Direct (ZA*ZB/RAB)
Interaction factors:
s-s (sigma) =    1.0000
s-p (sigma) =    1.0000
s-d (sigma) =    1.0000
p-p (sigma) =    1.2670  p-p(pi) =    0.5850
p-d (sigma) =    1.0000  p-d(pi) =    1.0000
d-d (sigma) =    1.0000  d-d(pi) =    1.0000 d-d (delta) =    1.0000

fGamma parameter for Mataga-Nishimoto gamma integrals:    1.2000

--------------------------
Parameters for Element H :
--------------------------
 One-electron parameters (in eV)
  U(s)  =   -13.060000 Beta(s) =    12.000000 Neff(s) =     1.000000
 One-center electron repulsion parameters (in eV)
  G(s,s)=    12.850000
--------------------------
Parameters for Element C :
--------------------------
 One-electron parameters (in eV)
  U(s)  =   -50.870766 Beta(s) =    17.000000 Neff(s) =     2.000000
  U(p)  =   -41.599980 Beta(p) =    17.000000 Neff(p) =     2.000000 
 One-center electron repulsion parameters (in eV)
  G(s,s)=    11.110000
  G(s,p)=    11.110000 G(p,p)  =    11.110000
 Slater-Condon parameters (in eV)
 F2(p,p)=     4.5098 G1(s,p)=    6.8977
--------------------------
Parameters for Element S :
--------------------------
 One-electron parameters (in eV)
  U(s)  =   -69.509597 Beta(s) =    15.000000 Neff(s) =     2.000000
  U(p)  =   -60.725746 Beta(p) =    15.000000 Neff(p) =     4.000000 
 One-center electron repulsion parameters (in eV)
  G(s,s)=    10.090000
  G(s,p)=    10.090000 G(p,p)  =    10.090000
 Slater-Condon parameters (in eV)
 F2(p,p)=     4.5377 G1(s,p)=    3.0756

 Number of atoms                    ....   54
 Number of basis functions          ....  120

 Overlap integrals                  .... done
 One electron matrix                .... done
 Nuclear repulsion                  .... done
 Integral list                      .... done
 Electron-electron repulsion        .... done
-------------------------------------------------------------------------------
                                 ORCA SCF
-------------------------------------------------------------------------------

------------
SCF SETTINGS
------------
Hamiltonian:
 ZDO-Hamiltonian        Method          .... INDO


General Settings:
 Integral files         IntName         .... /Users/mattyjones/GoogleDrive/Boise/Code/MorphCT/tests/output_EZ/donor_polymer/chromophores/input_orca/pair/00007-00020
 Hartree-Fock type      HFTyp           .... RHF
 Total Charge           Charge          ....    0
 Multiplicity           Mult            ....    1
 Number of Electrons    NEL             ....  124
 Basis Dimension        Dim             ....  120
 Nuclear Repulsion      ENuc            ....    633.3073015427 Eh

Convergence Acceleration:
 DIIS                   CNVDIIS         .... on
   Start iteration      DIISMaxIt       ....    12
   Startup error        DIISStart       ....  0.200000
   # of expansion vecs  DIISMaxEq       ....     5
   Bias factor          DIISBfac        ....   1.050
   Max. coefficient     DIISMaxC        ....  10.000
 Newton-Raphson         CNVNR           .... off
 SOSCF                  CNVSOSCF        .... on
   Start iteration      SOSCFMaxIt      ....   150
   Startup grad/error   SOSCFStart      ....  0.003300
 Level Shifting         CNVShift        .... on
   Level shift para.    LevelShift      ....    0.2500
   Turn off err/grad.   ShiftErr        ....    0.0010
 Zerner damping         CNVZerner       .... off
 Static damping         CNVDamp         .... on
   Fraction old density DampFac         ....    0.7000
   Max. Damping (<1)    DampMax         ....    0.9800
   Min. Damping (>=0)   DampMin         ....    0.0000
   Turn off err/grad.   DampErr         ....    0.1000
 Fernandez-Rico         CNVRico         .... off

SCF Procedure:
 Maximum # iterations   MaxIter         ....   125
 SCF integral mode      SCFMode         .... Conventional
 Integral Buffer length BufferLength    .... 1048576
 Integral index format  IndFormat       ....     0
 Integral value format  ValFormat       ....     0
 Integral Storage       Thresh          ....  1.000e-08 Eh

Convergence Tolerance:
 Convergence Check Mode ConvCheckMode   .... Total+1el-Energy
 Energy Change          TolE            ....  1.000e-06 Eh
 1-El. energy change                    ....  1.000e-03 Eh
 Orbital Gradient       TolG            ....  5.000e-05
 Orbital Rotation angle TolX            ....  5.000e-05
 DIIS Error             TolErr          ....  1.000e-06


Diagonalization of the overlap matrix:
Smallest eigenvalue                        ... 1.696e-01
Time for diagonalization                   ...    0.003 sec
Threshold for overlap eigenvalues          ... 1.000e-08
Number of eigenvalues below threshold      ... 0
Time for construction of square roots      ...    0.001 sec
Total time needed                          ...    0.004 sec

-------------------------------
INITIAL GUESS: EXTENDED HUECKEL
-------------------------------
EHT matrix was read from disk
EHT matrix was diagonalized
Initial density was built
                      ------------------
                      INITIAL GUESS DONE
                      ------------------

 InCore treatment chosen:
   Memory dedicated               ...    1024 MB
   Memory needed                  ...      0 MB
   Number of tiny    integrals    ...       0
   Number of small   integrals    ...       0
   Number of regular integrals    ...    7392

--------------
SCF ITERATIONS
--------------
ITER       Energy         Delta-E        Max-DP      RMS-DP      [F,P]     Damp
  0    -20.9447930290   0.000000000000 0.04199833  0.00144634  0.1041165 0.7000
  1    -20.9865478135  -0.041754784588 0.03998099  0.00136267  0.0722015 0.7000
                               ***Turning on DIIS***
  2    -21.0174763819  -0.030928568316 0.10240342  0.00349887  0.0475754 0.0000
  3    -21.0973394337  -0.079863051866 0.01799099  0.00072441  0.0208842 0.0000
  4    -21.0833958053   0.013943628399 0.01184029  0.00049726  0.0075608 0.0000
  5    -21.1006512001  -0.017255394789 0.00829690  0.00033576  0.0043778 0.0000
  6    -21.1032483387  -0.002597138573 0.00619951  0.00023746  0.0023448 0.0000
                      *** Initiating the SOSCF procedure ***
                           *** Shutting down DIIS ***
                      *** Re-Reading the Fockian *** 
                      *** Removing any level shift *** 
ITER      Energy       Delta-E        Grad      Rot      Max-DP    RMS-DP
  7    -21.09910044   0.0041478992  0.003020  0.003020  0.003693  0.000133
  8    -21.09693815   0.0021622904  0.000808  0.002229  0.001832  0.000062
  9    -21.09695264  -0.0000144878  0.000357  0.002184  0.002057  0.000065
 10    -21.09695792  -0.0000052841  0.000033  0.000088  0.000129  0.000004
                 **** Energy Check signals convergence ****
              ***Rediagonalizing the Fockian in SOSCF/NRSCF***

               *****************************************************
               *                     SUCCESS                       *
               *           SCF CONVERGED AFTER  11 CYCLES          *
               *****************************************************


----------------
TOTAL SCF ENERGY
----------------

Total Energy       :          -21.09695797 Eh            -574.07741 eV

Components:
Nuclear Repulsion  :          633.30730154 Eh           17233.16779 eV
Electronic Energy  :         -654.40425952 Eh          -17807.24520 eV

One Electron Energy:        -1218.44381688 Eh          -33155.54185 eV
Two Electron Energy:          564.03955736 Eh           15348.29665 eV


---------------
SCF CONVERGENCE
---------------

  Last Energy change         ...   -5.1922e-08  Tolerance :   1.0000e-06
  Last MAX-Density change    ...    6.0889e-05  Tolerance :   1.0000e-05
  Last RMS-Density change    ...    1.5254e-06  Tolerance :   1.0000e-06
  Last Orbital Gradient      ...    1.2487e-05  Tolerance :   5.0000e-05
  Last Orbital Rotation      ...    2.7550e-05  Tolerance :   5.0000e-05

             **** THE GBW FILE WAS UPDATED (/Users/mattyjones/GoogleDrive/Boise/Code/MorphCT/tests/output_EZ/donor_polymer/chromophores/input_orca/pair/00007-00020.gbw) ****
             **** DENSITY FILE WAS UPDATED (/Users/mattyjones/GoogleDrive/Boise/Code/MorphCT/tests/output_EZ/donor_polymer/chromophores/input_orca/pair/00007-00020.scfp.tmp) ****
             **** ENERGY FILE WAS UPDATED (/Users/mattyjones/GoogleDrive/Boise/Code/MorphCT/tests/output_EZ/donor_polymer/chromophores/input_orca/pair/00007-00020.en.tmp) ****
----------------
ORBITAL ENERGIES
----------------

  NO   OCC          E(Eh)            E(eV) 
   0   2.0000      -1.559486       -42.4358 
   1   2.0000      -1.557110       -42.3711 
   2   2.0000      -1.403549       -38.1925 
   3   2.0000      -1.385309       -37.6962 
   4   2.0000      -1.291316       -35.1385 
   5   2.0000      -1.289302       -35.0837 
   6   2.0000      -1.181931       -32.1620 
   7   2.0000      -1.168909       -31.8076 
   8   2.0000      -1.113080       -30.2884 
   9   2.0000      -1.110342       -30.2139 
  10   2.0000      -1.058959       -28.8157 
  11   2.0000      -1.053755       -28.6741 
  12   2.0000      -0.959189       -26.1009 
  13   2.0000      -0.950976       -25.8774 
  14   2.0000      -0.889474       -24.2038 
  15   2.0000      -0.879070       -23.9207 
  16   2.0000      -0.864993       -23.5377 
  17   2.0000      -0.863118       -23.4866 
  18   2.0000      -0.836924       -22.7738 
  19   2.0000      -0.833254       -22.6740 
  20   2.0000      -0.791639       -21.5416 
  21   2.0000      -0.777600       -21.1596 
  22   2.0000      -0.734059       -19.9748 
  23   2.0000      -0.731329       -19.9005 
  24   2.0000      -0.694576       -18.9004 
  25   2.0000      -0.692718       -18.8498 
  26   2.0000      -0.671233       -18.2652 
  27   2.0000      -0.666209       -18.1285 
  28   2.0000      -0.641815       -17.4647 
  29   2.0000      -0.630278       -17.1507 
  30   2.0000      -0.617470       -16.8022 
  31   2.0000      -0.612295       -16.6614 
  32   2.0000      -0.600594       -16.3430 
  33   2.0000      -0.584897       -15.9159 
  34   2.0000      -0.576545       -15.6886 
  35   2.0000      -0.576324       -15.6826 
  36   2.0000      -0.567886       -15.4530 
  37   2.0000      -0.562009       -15.2930 
  38   2.0000      -0.560773       -15.2594 
  39   2.0000      -0.548087       -14.9142 
  40   2.0000      -0.540091       -14.6966 
  41   2.0000      -0.534345       -14.5403 
  42   2.0000      -0.521176       -14.1819 
  43   2.0000      -0.512182       -13.9372 
  44   2.0000      -0.507033       -13.7971 
  45   2.0000      -0.499920       -13.6035 
  46   2.0000      -0.496995       -13.5239 
  47   2.0000      -0.494161       -13.4468 
  48   2.0000      -0.487636       -13.2693 
  49   2.0000      -0.484984       -13.1971 
  50   2.0000      -0.483175       -13.1479 
  51   2.0000      -0.479015       -13.0347 
  52   2.0000      -0.476200       -12.9581 
  53   2.0000      -0.471772       -12.8376 
  54   2.0000      -0.457238       -12.4421 
  55   2.0000      -0.456002       -12.4085 
  56   2.0000      -0.436174       -11.8689 
  57   2.0000      -0.435558       -11.8521 
  58   2.0000      -0.356273        -9.6947 
  59   2.0000      -0.354035        -9.6338 
  60   2.0000      -0.305238        -8.3060 
  61   2.0000      -0.304792        -8.2938 
  62   0.0000       0.007695         0.2094 
  63   0.0000       0.008484         0.2309 
  64   0.0000       0.062327         1.6960 
  65   0.0000       0.067233         1.8295 
  66   0.0000       0.072967         1.9855 
  67   0.0000       0.076218         2.0740 
  68   0.0000       0.084479         2.2988 
  69   0.0000       0.084539         2.3004 
  70   0.0000       0.105147         2.8612 
  71   0.0000       0.105406         2.8682 
  72   0.0000       0.107741         2.9318 
  73   0.0000       0.108646         2.9564 
  74   0.0000       0.123424         3.3585 
  75   0.0000       0.125009         3.4017 
  76   0.0000       0.141333         3.8459 
  77   0.0000       0.143460         3.9038 
  78   0.0000       0.154511         4.2045 
  79   0.0000       0.156189         4.2501 
  80   0.0000       0.165515         4.5039 
  81   0.0000       0.167708         4.5636 
  82   0.0000       0.168699         4.5905 
  83   0.0000       0.176693         4.8081 
  84   0.0000       0.203351         5.5335 
  85   0.0000       0.203745         5.5442 
  86   0.0000       0.231422         6.2973 
  87   0.0000       0.234202         6.3730 
  88   0.0000       0.234656         6.3853 
  89   0.0000       0.236316         6.4305 
  90   0.0000       0.237452         6.4614 
  91   0.0000       0.238459         6.4888 
  92   0.0000       0.238471         6.4891 
  93   0.0000       0.239986         6.5304 
  94   0.0000       0.240163         6.5352 
  95   0.0000       0.241596         6.5742 
  96   0.0000       0.243129         6.6159 
  97   0.0000       0.243195         6.6177 
  98   0.0000       0.243523         6.6266 
  99   0.0000       0.244378         6.6499 
 100   0.0000       0.245204         6.6723 
 101   0.0000       0.252901         6.8818 
 102   0.0000       0.256173         6.9708 
 103   0.0000       0.262047         7.1307 
 104   0.0000       0.266915         7.2631 
 105   0.0000       0.267399         7.2763 
 106   0.0000       0.274373         7.4661 
 107   0.0000       0.275529         7.4975 
 108   0.0000       0.293813         7.9951 
 109   0.0000       0.306246         8.3334 
 110   0.0000       0.310173         8.4402 
 111   0.0000       0.310660         8.4535 
 112   0.0000       0.340524         9.2661 
 113   0.0000       0.340530         9.2663 
 114   0.0000       0.347834         9.4650 
 115   0.0000       0.355647         9.6777 
 116   0.0000       0.419672        11.4199 
 117   0.0000       0.420839        11.4516 
 118   0.0000       0.425388        11.5754 
 119   0.0000       0.429829        11.6962 
-------
TIMINGS
-------

Total SCF time: 0 days 0 hours 0 min 0 sec 

Total time                  ....       0.142 sec
Sum of individual times     ....       0.120 sec  ( 84.3%)

Fock matrix formation       ....       0.044 sec  ( 30.9%)
Diagonalization             ....       0.023 sec  ( 16.0%)
Density matrix formation    ....       0.005 sec  (  3.4%)
Population analysis         ....       0.000 sec  (  0.0%)
Initial guess               ....       0.003 sec  (  2.1%)
Orbital Transformation      ....       0.000 sec  (  0.0%)
Orbital Orthonormalization  ....       0.000 sec  (  0.0%)
DIIS solution               ....       0.040 sec  ( 28.0%)
SOSCF solution              ....       0.006 sec  (  4.0%)

-------------------------   --------------------
FINAL SINGLE POINT ENERGY       -21.096957972987
-------------------------   --------------------


                            ***************************************
                            *     ORCA property calculations      *
                            ***************************************

                                    ---------------------
                                    Active property flags
                                    ---------------------
   (+) Dipole Moment


------------------------------------------------------------------------------
                       ORCA ELECTRIC PROPERTIES CALCULATION
------------------------------------------------------------------------------

Dipole Moment Calculation                       ... on
Quadrupole Moment Calculation                   ... off
Polarizability Calculation                      ... off
GBWName                                         ... /Users/mattyjones/GoogleDrive/Boise/Code/MorphCT/tests/output_EZ/donor_polymer/chromophores/input_orca/pair/00007-00020.gbw
Electron density file                           ... /Users/mattyjones/GoogleDrive/Boise/Code/MorphCT/tests/output_EZ/donor_polymer/chromophores/input_orca/pair/00007-00020.scfp.tmp

-------------
DIPOLE MOMENT
-------------
                                X             Y             Z
Electronic contribution:   -152.62014    -199.47747     106.76897
Nuclear contribution   :     81.28588     107.54302     -57.82017
                        -----------------------------------------
Total Dipole Moment    :    -71.33426     -91.93446      48.94880
                        -----------------------------------------
Magnitude (a.u.)       :    126.23988
Magnitude (Debye)      :    320.87626


Timings for individual modules:

Sum of individual times         ...        0.230 sec (=   0.004 min)
STO integral calculation        ...        0.050 sec (=   0.001 min)  21.9 %
SCF iterations                  ...        0.180 sec (=   0.003 min)  78.1 %
                             ****ORCA TERMINATED NORMALLY****
TOTAL RUN TIME: 0 days 0 hours 0 minutes 0 seconds 592 msec

