
                                 *****************
                                 * O   R   C   A *
                                 *****************

           --- An Ab Initio, DFT and Semiempirical electronic structure package ---

                  #######################################################
                  #                        -***-                        #
                  #  Department of molecular theory and spectroscopy    #
                  #              Directorship: Frank Neese              #
                  # Max Planck Institute for Chemical Energy Conversion #
                  #                  D-45470 Muelheim/Ruhr              #
                  #                       Germany                       #
                  #                                                     #
                  #                  All rights reserved                #
                  #                        -***-                        #
                  #######################################################


                         Program Version 4.0.1.2 - RELEASE -


 With contributions from (in alphabetic order):
   Daniel Aravena         : Magnetic Properties
   Michael Atanasov       : Ab Initio Ligand Field Theory
   Ute Becker             : Parallelization
   Martin Brehm           : Molecular dynamics
   Dmytro Bykov           : SCF Hessian
   Vijay G. Chilkuri      : MRCI spin determinant printing
   Dipayan Datta          : RHF DLPNO-CCSD density
   Achintya Kumar Dutta   : EOM-CC, STEOM-CC
   Dmitry Ganyushin       : Spin-Orbit,Spin-Spin,Magnetic field MRCI
   Yang Guo               : DLPNO-NEVPT2, CIM, IAO-localization
   Andreas Hansen         : Spin unrestricted coupled pair/coupled cluster methods
   Lee Huntington         : MR-EOM, pCC
   Robert Izsak           : Overlap fitted RIJCOSX, COSX-SCS-MP3, EOM
   Christian Kollmar      : KDIIS, OOCD, Brueckner-CCSD(T), CCSD density
   Simone Kossmann        : Meta GGA functionals, TD-DFT gradient, OOMP2, MP2 Hessian
   Martin Krupicka        : AUTO-CI
   Dagmar Lenk            : GEPOL surface
   Dimitrios Liakos       : Extrapolation schemes; parallel MDCI
   Dimitrios Manganas     : ROCIS; embedding schemes
   Dimitrios Pantazis     : SARC Basis sets
   Taras Petrenko         : DFT Hessian,TD-DFT gradient, ASA, ECA, R-Raman, ABS, FL, XAS/XES, NRVS
   Peter Pinski           : DLPNO-MP2
   Christoph Reimann      : Effective Core Potentials
   Marius Retegan         : Local ZFS, SOC
   Christoph Riplinger    : Optimizer, TS searches, QM/MM, DLPNO-CCSD(T), (RO)-DLPNO pert. Triples
   Tobias Risthaus        : Range-separated hybrids, TD-DFT gradient, RPA, STAB
   Michael Roemelt        : Restricted open shell CIS
   Masaaki Saitow         : Open-shell DLPNO
   Barbara Sandhoefer     : DKH picture change effects
   Kantharuban Sivalingam : CASSCF convergence, NEVPT2, FIC-MRCI
   Georgi Stoychev        : AutoAux
   Boris Wezisla          : Elementary symmetry handling
   Frank Wennmohs         : Technical directorship


 We gratefully acknowledge several colleagues who have allowed us to
 interface, adapt or use parts of their codes:
   Stefan Grimme, W. Hujo, H. Kruse,             : VdW corrections, initial TS optimization,
                  C. Bannwarth                     DFT functionals, gCP, sTDA/sTD-DF
   Ed Valeev                                     : LibInt (2-el integral package), F12 methods
   Garnet Chan, S. Sharma, J. Yang, R. Olivares  : DMRG
   Ulf Ekstrom                                   : XCFun DFT Library
   Mihaly Kallay                                 : mrcc  (arbitrary order and MRCC methods)
   Andreas Klamt, Michael Diedenhofen            : otool_cosmo (COSMO solvation model)
   Jiri Pittner, Ondrej Demel                    : Mk-CCSD
   Frank Weinhold                                : gennbo (NPA and NBO analysis)
   Christopher J. Cramer and Donald G. Truhlar   : smd solvation model


 Your calculation uses the libint2 library for the computation of 2-el integrals
 For citations please refer to: http://libint.valeyev.net

 This ORCA versions uses:
   CBLAS   interface :  Fast vector & matrix operations
   LAPACKE interface :  Fast linear algebra routines
   SCALAPACK package :  Parallel linear algebra routines


leaving
Your calculation utilizes the basis: def2-SVP
   F. Weigend and R. Ahlrichs, Phys. Chem. Chem. Phys. 7, 3297 (2005).

================================================================================
                                        WARNINGS
                       Please study these warnings very carefully!
================================================================================

Warning: TCutStore was < 0. Adjusted to Thresh (uncritical)

WARNING: Direct SCF is incompatible with Method<>HF and Method<>DFT
  ===> : conventional SCF is chosen

WARNING: The NDO methods need Guess=HUECKEL or Guess=HCORE or Guess=MOREAD
  ===> : Guess is set to Hueckel

WARNING: The NDO methods need %rel::SOCType==1
  ===> : %rel::SOCType is set to 1

WARNING: The NDO methods cannot have frozencore=1
  ===> : %method FrozenCore=0 end

INFO   : the flag for use of LIBINT has been found!

================================================================================
                                       INPUT FILE
================================================================================
NAME = /home/mattyjones/Software/morphct/tests/output_EZ/donor_polymer/chromophores/input_orca/pair/00001-00025.inp
|  1> # ================================================================
|  2> # Orca input file made by Matty Jones
|  3> # ================================================================
|  4> ! ZINDO/S 
|  5> ! NOPOP
|  6> ! NOMOPRINT
|  7> * xyz 0   1
|  8>  C  18.41813  3.94078  -13.58639
|  9>  C  19.59961  4.61029  -13.26425
| 10>  C  20.42816  3.91527  -12.32899
| 11>  C  19.89826  2.69077  -11.91052
| 12>  S  18.45282  2.53467  -12.70848
| 13>  H  19.89060  5.62880  -13.69204
| 14>  C  21.90055  4.26579  -11.64918
| 15>  C  22.87291  5.53971  -10.89158
| 16>  C  24.11700  6.57321  -11.47421
| 17>  H  23.70315  7.09222  -12.41690
| 18>  H  24.98925  5.87539  -11.77898
| 19>  H  23.37001  5.00250  -9.99845
| 20>  H  22.06700  6.26639  -10.49933
| 21>  H  21.95853  3.55751  -10.72729
| 22>  H  22.68295  3.89735  -12.44382
| 23>  C  24.71992  7.71983  -10.45633
| 24>  C  25.76828  7.43033  -9.12968
| 25>  C  27.45217  7.43620  -9.26800
| 26>  H  27.75258  7.51212  -10.38054
| 27>  H  27.87017  6.45417  -8.81706
| 28>  H  27.88670  8.33671  -8.68351
| 29>  H  25.51952  8.26326  -8.36505
| 30>  H  25.46382  6.41155  -8.68403
| 31>  H  23.81566  8.28659  -10.00678
| 32>  H  25.31695  8.46159  -11.12169
| 33>  C  -19.51959  -3.67697  9.56875
| 34>  C  -20.39199  -4.29613  10.46512
| 35>  C  -21.09376  -3.38839  11.31821
| 36>  C  -20.77390  -2.04567  11.09434
| 37>  S  -19.65536  -2.05217  9.86990
| 38>  H  -20.00450  -5.25612  11.00943
| 39>  C  -22.15342  -3.95602  12.40465
| 40>  C  -23.29832  -4.96792  11.60677
| 41>  C  -24.64210  -5.92776  12.05595
| 42>  H  -24.93131  -5.61021  13.12962
| 43>  H  -25.50788  -5.65351  11.34052
| 44>  H  -22.59451  -5.74265  11.14815
| 45>  H  -23.73027  -4.27102  10.79040
| 46>  H  -22.74295  -3.09512  12.90941
| 47>  H  -21.61821  -4.58513  13.21900
| 48>  C  -24.41754  -7.54607  12.02355
| 49>  C  -24.60670  -8.26578  10.48829
| 50>  C  -26.10149  -8.85518  9.99072
| 51>  H  -25.95624  -9.89575  9.50315
| 52>  H  -26.55549  -8.12896  9.21106
| 53>  H  -26.80914  -8.94549  10.89947
| 54>  H  -23.86438  -9.14724  10.43755
| 55>  H  -24.32602  -7.46552  9.70766
| 56>  H  -25.18725  -8.05150  12.72229
| 57>  H  -23.35587  -7.79866  12.39887
| 58>  H  17.65877  4.26323  -14.25196
| 59>  H  20.33004  2.00574  -11.22648
| 60>  H  -18.90072  -4.14647  8.84753
| 61>  H  -21.16456  -1.20060  11.60114
| 62> *
| 63> 
| 64>                          ****END OF INPUT****
================================================================================

                       ****************************
                       * Single Point Calculation *
                       ****************************

---------------------------------
CARTESIAN COORDINATES (ANGSTROEM)
---------------------------------
  C     18.418130    3.940780  -13.586390
  C     19.599610    4.610290  -13.264250
  C     20.428160    3.915270  -12.328990
  C     19.898260    2.690770  -11.910520
  S     18.452820    2.534670  -12.708480
  H     19.890600    5.628800  -13.692040
  C     21.900550    4.265790  -11.649180
  C     22.872910    5.539710  -10.891580
  C     24.117000    6.573210  -11.474210
  H     23.703150    7.092220  -12.416900
  H     24.989250    5.875390  -11.778980
  H     23.370010    5.002500   -9.998450
  H     22.067000    6.266390  -10.499330
  H     21.958530    3.557510  -10.727290
  H     22.682950    3.897350  -12.443820
  C     24.719920    7.719830  -10.456330
  C     25.768280    7.430330   -9.129680
  C     27.452170    7.436200   -9.268000
  H     27.752580    7.512120  -10.380540
  H     27.870170    6.454170   -8.817060
  H     27.886700    8.336710   -8.683510
  H     25.519520    8.263260   -8.365050
  H     25.463820    6.411550   -8.684030
  H     23.815660    8.286590  -10.006780
  H     25.316950    8.461590  -11.121690
  C    -19.519590   -3.676970    9.568750
  C    -20.391990   -4.296130   10.465120
  C    -21.093760   -3.388390   11.318210
  C    -20.773900   -2.045670   11.094340
  S    -19.655360   -2.052170    9.869900
  H    -20.004500   -5.256120   11.009430
  C    -22.153420   -3.956020   12.404650
  C    -23.298320   -4.967920   11.606770
  C    -24.642100   -5.927760   12.055950
  H    -24.931310   -5.610210   13.129620
  H    -25.507880   -5.653510   11.340520
  H    -22.594510   -5.742650   11.148150
  H    -23.730270   -4.271020   10.790400
  H    -22.742950   -3.095120   12.909410
  H    -21.618210   -4.585130   13.219000
  C    -24.417540   -7.546070   12.023550
  C    -24.606700   -8.265780   10.488290
  C    -26.101490   -8.855180    9.990720
  H    -25.956240   -9.895750    9.503150
  H    -26.555490   -8.128960    9.211060
  H    -26.809140   -8.945490   10.899470
  H    -23.864380   -9.147240   10.437550
  H    -24.326020   -7.465520    9.707660
  H    -25.187250   -8.051500   12.722290
  H    -23.355870   -7.798660   12.398870
  H     17.658770    4.263230  -14.251960
  H     20.330040    2.005740  -11.226480
  H    -18.900720   -4.146470    8.847530
  H    -21.164560   -1.200600   11.601140

----------------------------
CARTESIAN COORDINATES (A.U.)
----------------------------
  NO LB      ZA    FRAG     MASS         X           Y           Z
   0 C     4.0000    0    12.011   34.805222    7.446995  -25.674556
   1 C     4.0000    0    12.011   37.037895    8.712185  -25.065800
   2 C     4.0000    0    12.011   38.603628    7.398788  -23.298415
   3 C     4.0000    0    12.011   37.602262    5.084818  -22.507621
   4 S     6.0000    0    32.060   34.870776    4.789832  -24.015547
   5 H     1.0000    0     1.008   37.587787   10.636890  -25.874206
   6 C     4.0000    0    12.011   41.386042    8.061175  -22.013760
   7 C     4.0000    0    12.011   43.223536   10.468535  -20.582103
   8 C     4.0000    0    12.011   45.574525   12.421567  -21.683115
   9 H     1.0000    0     1.008   44.792462   13.402353  -23.464540
  10 H     1.0000    0     1.008   47.222839   11.102878  -22.259046
  11 H     1.0000    0     1.008   44.162919    9.453355  -18.894332
  12 H     1.0000    0     1.008   41.700587   11.841761  -19.840858
  13 H     1.0000    0     1.008   41.495608    6.722720  -20.271640
  14 H     1.0000    0     1.008   42.864563    7.364924  -23.515412
  15 C     4.0000    0    12.011   46.713879   14.588365  -19.759600
  16 C     4.0000    0    12.011   48.694992   14.041289  -17.252595
  17 C     4.0000    0    12.011   51.877083   14.052381  -17.513982
  18 H     1.0000    0     1.008   52.444776   14.195849  -19.616378
  19 H     1.0000    0     1.008   52.666989   12.196614  -16.661829
  20 H     1.0000    0     1.008   52.698226   15.754099  -16.409456
  21 H     1.0000    0     1.008   48.224904   15.615298  -15.807654
  22 H     1.0000    0     1.008   48.119646   12.116074  -16.410438
  23 H     1.0000    0     1.008   45.005075   15.659386  -18.910074
  24 H     1.0000    0     1.008   47.842102   15.990088  -21.016948
  25 C     4.0000    0    12.011  -36.886679   -6.948466   18.082317
  26 C     4.0000    0    12.011  -38.535276   -8.118509   19.776211
  27 C     4.0000    0    12.011  -39.861430   -6.403129   21.388317
  28 C     4.0000    0    12.011  -39.256982   -3.865756   20.965264
  29 S     6.0000    0    32.060  -37.143247   -3.878039   18.651408
  30 H     1.0000    0     1.008  -37.803026   -9.932627   20.804808
  31 C     4.0000    0    12.011  -41.863897   -7.475794   23.441391
  32 C     4.0000    0    12.011  -44.027444   -9.388008   21.933617
  33 C     4.0000    0    12.011  -46.566820  -11.201843   22.782444
  34 H     1.0000    0     1.008  -47.113348  -10.601760   24.811386
  35 H     1.0000    0     1.008  -48.202907  -10.683586   21.430477
  36 H     1.0000    0     1.008  -42.697436  -10.852036   21.066950
  37 H     1.0000    0     1.008  -44.843711   -8.071058   20.390901
  38 H     1.0000    0     1.008  -42.977947   -5.848929   24.395249
  39 H     1.0000    0     1.008  -40.852496   -8.664640   24.980290
  40 C     4.0000    0    12.011  -46.142463  -14.260006   22.721217
  41 C     4.0000    0    12.011  -46.499924  -15.620060   19.819996
  42 C     4.0000    0    12.011  -49.324668  -16.733865   18.879725
  43 H     1.0000    0     1.008  -49.050185  -18.700257   17.958351
  44 H     1.0000    0     1.008  -50.182603  -15.361508   17.406381
  45 H     1.0000    0     1.008  -50.661932  -16.904526   20.597013
  46 H     1.0000    0     1.008  -45.097143  -17.285778   19.724111
  47 H     1.0000    0     1.008  -45.969516  -14.107788   18.344819
  48 H     1.0000    0     1.008  -47.597005  -15.215130   24.041644
  49 H     1.0000    0     1.008  -44.136198  -14.737332   23.430469
  50 H     1.0000    0     1.008   33.370239    8.056337  -26.932301
  51 H     1.0000    0     1.008   38.418208    3.790299  -21.214973
  52 H     1.0000    0     1.008  -35.717185   -7.835693   16.719409
  53 H     1.0000    0     1.008  -39.995222   -2.268805   21.922977

--------------------------------
INTERNAL COORDINATES (ANGSTROEM)
--------------------------------
 C      0   0   0     0.000000000000     0.00000000     0.00000000
 C      1   0   0     1.395676470426     0.00000000     0.00000000
 C      2   1   0     1.429775916184   114.10162797     0.00000000
 C      3   2   1     1.398324497711   113.69283772     0.00000000
 S      1   2   3     1.658033382143   105.47941341     0.00000000
 H      2   1   3     1.142384385529   123.84048867   180.58512372
 C      3   2   1     1.659198064910   132.80998893   179.41799914
 C      7   3   2     1.772657297957   144.45921363    44.36281193
 C      8   7   3     1.719110204437   133.16944294   259.99595253
 H      9   8   7     1.152956043698   106.73634946    53.04999449
 H      9   8   7     1.157867681473   105.78666625   296.99016168
 H      8   7   3     1.154722560185   103.43630903   136.71564813
 H      8   7   3     1.153869495654   102.40124015    23.09403027
 H      7   3   2     1.164003183372   103.89564950   162.59134240
 H      7   3   2     1.174457544231   104.34040830   275.84311477
 C      9   8   7     1.647522274569   118.28447322   176.08031302
 C     16   9   8     1.715479280580   125.73106918    73.91864023
 C     17  16   9     1.689571665068   123.03597198    89.84819897
 H     18  17  16     1.154883226175   109.77579992   352.18873893
 H     18  17  16     1.158643087624   108.95022722   232.06483931
 H     18  17  16     1.158172327894   109.59140152   112.75989505
 H     17  16   9     1.157718860259   104.95363489   209.96446509
 H     17  16   9     1.152914785446   106.65864887   325.41031681
 H     16   9   8     1.158014787341   107.13970454   310.10485622
 H     16   9   8     1.161618116293   106.17788708   194.73042347
 C      5   1   2    44.460807113351   111.46394540   130.01588188
 C     26   5   1     1.395679061425   156.58216564   186.58581341
 C     27  26   5     1.429767669448   114.10157292   134.60165192
 C     28  27  26     1.398329430034   113.69319591     0.00000000
 S     26   5   1     1.658040969156    91.37709750   323.24206976
 H     27  26   5     1.169616465471   117.12399757   357.80431788
 C     28  27  26     1.620319414838   119.91059939   179.46006388
 C     32  28  27     1.723760457372   109.24784427   306.54202399
 C     33  32  28     1.711373771682   136.82576185   177.97214980
 H     34  33  32     1.156394264730   106.62189538    14.94107564
 H     34  33  32     1.156126358060   107.01055810   131.22870723
 H     33  32  28     1.142754301414   100.05974778    58.04704422
 H     33  32  28     1.157026529255   102.76604424   303.84327227
 H     32  28  27     1.159084590744   111.37214139   188.01283795
 H     32  28  27     1.159911659869   111.03843812    65.85457457
 C     34  33  32     1.634137145316   116.25212097   253.26702116
 C     41  34  33     1.706102944520   114.85759556   276.94998553
 C     42  41  34     1.682071760954   120.83246753   268.87438624
 H     43  42  41     1.158278028929   109.13962426   224.77864453
 H     43  42  41     1.158180125887   109.13327660   105.49516027
 H     43  42  41     1.155314234786   109.81797076   345.11166725
 H     42  41  34     1.153509974643   106.89310931   146.49103653
 H     42  41  34     1.152640675536   106.83145961    28.61739816
 H     41  34  33     1.155919788134   109.24017330   157.26919392
 H     41  34  33     1.154040726924   109.67749062    38.25075058
 H      1   2   3     1.059992941958   127.26048982   180.00000505
 H      4   3   2     1.060005090035   127.20551458   180.00028624
 H     26   5   1     1.059994629845    38.95187067   122.24326599
 H     29  28  27     1.060002254950   127.20593054   179.99978523

---------------------------
INTERNAL COORDINATES (A.U.)
---------------------------
 C      0   0   0     0.000000000000     0.00000000     0.00000000
 C      1   0   0     2.637446300662     0.00000000     0.00000000
 C      2   1   0     2.701884914464   114.10162797     0.00000000
 C      3   2   1     2.642450347028   113.69283772     0.00000000
 S      1   2   3     3.133229013149   105.47941341     0.00000000
 H      2   1   3     2.158793628317   123.84048867   180.58512372
 C      3   2   1     3.135429944611   132.80998893   179.41799914
 C      7   3   2     3.349836822435   144.45921363    44.36281193
 C      8   7   3     3.248647480416   133.16944294   259.99595253
 H      9   8   7     2.178771167039   106.73634946    53.04999449
 H      9   8   7     2.188052817303   105.78666625   296.99016168
 H      8   7   3     2.182109399410   103.43630903   136.71564813
 H      8   7   3     2.180497341071   102.40124015    23.09403027
 H      7   3   2     2.199647235585   103.89564950   162.59134240
 H      7   3   2     2.219403114513   104.34040830   275.84311477
 C      9   8   7     3.113365898470   118.28447322   176.08031302
 C     16   9   8     3.241786028713   125.73106918    73.91864023
 C     17  16   9     3.192827730611   123.03597198    89.84819897
 H     18  17  16     2.182413014130   109.77579992   352.18873893
 H     18  17  16     2.189518122571   108.95022722   232.06483931
 H     18  17  16     2.188628515606   109.59140152   112.75989505
 H     17  16   9     2.187771585965   104.95363489   209.96446509
 H     17  16   9     2.178693200242   106.65864887   325.41031681
 H     16   9   8     2.188330807105   107.13970454   310.10485622
 H     16   9   8     2.195140111995   106.17788708   194.73042347
 C      5   1   2    84.018749137331   111.46394540   130.01588188
 C     26   5   1     2.637451196941   156.58216564   186.58581341
 C     27  26   5     2.701869330392   114.10157292   134.60165192
 C     28  27  26     2.642459667767   113.69319591     0.00000000
 S     26   5   1     3.133243350526    91.37709750   323.24206976
 H     27  26   5     2.210254801464   117.12399757   357.80431788
 C     28  27  26     3.061959943519   119.91059939   179.46006388
 C     32  28  27     3.257435184916   109.24784427   306.54202399
 C     33  32  28     3.234027741254   136.82576185   177.97214980
 H     34  33  32     2.185268463177   106.62189538    14.94107564
 H     34  33  32     2.184762192940   107.01055810   131.22870723
 H     33  32  28     2.159492668033   100.05974778    58.04704422
 H     33  32  28     2.186463269973   102.76604424   303.84327227
 H     32  28  27     2.190352442554   111.37214139   188.01283795
 H     32  28  27     2.191915376694   111.03843812    65.85457457
 C     34  33  32     3.088071669914   116.25212097   253.26702116
 C     41  34  33     3.224067321420   114.85759556   276.94998553
 C     42  41  34     3.178654965806   120.83246753   268.87438624
 H     43  42  41     2.188828261614   109.13962426   224.77864453
 H     43  42  41     2.188643251677   109.13327660   105.49516027
 H     43  42  41     2.183227502367   109.81797076   345.11166725
 H     42  41  34     2.179817944821   106.89310931   146.49103653
 H     42  41  34     2.178175207581   106.83145961    28.61739816
 H     41  34  33     2.184371832354   109.24017330   157.26919392
 H     41  34  33     2.180820921278   109.67749062    38.25075058
 H      1   2   3     2.003096364189   127.26048982   180.00000505
 H      4   3   2     2.003119320729   127.20551458   180.00028624
 H     26   5   1     2.003099553834    38.95187067   122.24326599
 H     29  28  27     2.003113963195   127.20593054   179.99978523

----------------------------
SLATER BASIS SET DIM= 120
----------------------------
  0 C     2 shells
 l=0 nsto= 1
    2       1.625000000000        1.000000000000
 l=1 nsto= 1
    2       1.625000000000        1.000000000000
  1 C     2 shells
 l=0 nsto= 1
    2       1.625000000000        1.000000000000
 l=1 nsto= 1
    2       1.625000000000        1.000000000000
  2 C     2 shells
 l=0 nsto= 1
    2       1.625000000000        1.000000000000
 l=1 nsto= 1
    2       1.625000000000        1.000000000000
  3 C     2 shells
 l=0 nsto= 1
    2       1.625000000000        1.000000000000
 l=1 nsto= 1
    2       1.625000000000        1.000000000000
  4 S     2 shells
 l=0 nsto= 1
    3       1.925000000000        1.000000000000
 l=1 nsto= 1
    3       1.925000000000        1.000000000000
  5 H     1 shells
 l=0 nsto= 1
    1       1.200000000000        1.000000000000
  6 C     2 shells
 l=0 nsto= 1
    2       1.625000000000        1.000000000000
 l=1 nsto= 1
    2       1.625000000000        1.000000000000
  7 C     2 shells
 l=0 nsto= 1
    2       1.625000000000        1.000000000000
 l=1 nsto= 1
    2       1.625000000000        1.000000000000
  8 C     2 shells
 l=0 nsto= 1
    2       1.625000000000        1.000000000000
 l=1 nsto= 1
    2       1.625000000000        1.000000000000
  9 H     1 shells
 l=0 nsto= 1
    1       1.200000000000        1.000000000000
 10 H     1 shells
 l=0 nsto= 1
    1       1.200000000000        1.000000000000
 11 H     1 shells
 l=0 nsto= 1
    1       1.200000000000        1.000000000000
 12 H     1 shells
 l=0 nsto= 1
    1       1.200000000000        1.000000000000
 13 H     1 shells
 l=0 nsto= 1
    1       1.200000000000        1.000000000000
 14 H     1 shells
 l=0 nsto= 1
    1       1.200000000000        1.000000000000
 15 C     2 shells
 l=0 nsto= 1
    2       1.625000000000        1.000000000000
 l=1 nsto= 1
    2       1.625000000000        1.000000000000
 16 C     2 shells
 l=0 nsto= 1
    2       1.625000000000        1.000000000000
 l=1 nsto= 1
    2       1.625000000000        1.000000000000
 17 C     2 shells
 l=0 nsto= 1
    2       1.625000000000        1.000000000000
 l=1 nsto= 1
    2       1.625000000000        1.000000000000
 18 H     1 shells
 l=0 nsto= 1
    1       1.200000000000        1.000000000000
 19 H     1 shells
 l=0 nsto= 1
    1       1.200000000000        1.000000000000
 20 H     1 shells
 l=0 nsto= 1
    1       1.200000000000        1.000000000000
 21 H     1 shells
 l=0 nsto= 1
    1       1.200000000000        1.000000000000
 22 H     1 shells
 l=0 nsto= 1
    1       1.200000000000        1.000000000000
 23 H     1 shells
 l=0 nsto= 1
    1       1.200000000000        1.000000000000
 24 H     1 shells
 l=0 nsto= 1
    1       1.200000000000        1.000000000000
 25 C     2 shells
 l=0 nsto= 1
    2       1.625000000000        1.000000000000
 l=1 nsto= 1
    2       1.625000000000        1.000000000000
 26 C     2 shells
 l=0 nsto= 1
    2       1.625000000000        1.000000000000
 l=1 nsto= 1
    2       1.625000000000        1.000000000000
 27 C     2 shells
 l=0 nsto= 1
    2       1.625000000000        1.000000000000
 l=1 nsto= 1
    2       1.625000000000        1.000000000000
 28 C     2 shells
 l=0 nsto= 1
    2       1.625000000000        1.000000000000
 l=1 nsto= 1
    2       1.625000000000        1.000000000000
 29 S     2 shells
 l=0 nsto= 1
    3       1.925000000000        1.000000000000
 l=1 nsto= 1
    3       1.925000000000        1.000000000000
 30 H     1 shells
 l=0 nsto= 1
    1       1.200000000000        1.000000000000
 31 C     2 shells
 l=0 nsto= 1
    2       1.625000000000        1.000000000000
 l=1 nsto= 1
    2       1.625000000000        1.000000000000
 32 C     2 shells
 l=0 nsto= 1
    2       1.625000000000        1.000000000000
 l=1 nsto= 1
    2       1.625000000000        1.000000000000
 33 C     2 shells
 l=0 nsto= 1
    2       1.625000000000        1.000000000000
 l=1 nsto= 1
    2       1.625000000000        1.000000000000
 34 H     1 shells
 l=0 nsto= 1
    1       1.200000000000        1.000000000000
 35 H     1 shells
 l=0 nsto= 1
    1       1.200000000000        1.000000000000
 36 H     1 shells
 l=0 nsto= 1
    1       1.200000000000        1.000000000000
 37 H     1 shells
 l=0 nsto= 1
    1       1.200000000000        1.000000000000
 38 H     1 shells
 l=0 nsto= 1
    1       1.200000000000        1.000000000000
 39 H     1 shells
 l=0 nsto= 1
    1       1.200000000000        1.000000000000
 40 C     2 shells
 l=0 nsto= 1
    2       1.625000000000        1.000000000000
 l=1 nsto= 1
    2       1.625000000000        1.000000000000
 41 C     2 shells
 l=0 nsto= 1
    2       1.625000000000        1.000000000000
 l=1 nsto= 1
    2       1.625000000000        1.000000000000
 42 C     2 shells
 l=0 nsto= 1
    2       1.625000000000        1.000000000000
 l=1 nsto= 1
    2       1.625000000000        1.000000000000
 43 H     1 shells
 l=0 nsto= 1
    1       1.200000000000        1.000000000000
 44 H     1 shells
 l=0 nsto= 1
    1       1.200000000000        1.000000000000
 45 H     1 shells
 l=0 nsto= 1
    1       1.200000000000        1.000000000000
 46 H     1 shells
 l=0 nsto= 1
    1       1.200000000000        1.000000000000
 47 H     1 shells
 l=0 nsto= 1
    1       1.200000000000        1.000000000000
 48 H     1 shells
 l=0 nsto= 1
    1       1.200000000000        1.000000000000
 49 H     1 shells
 l=0 nsto= 1
    1       1.200000000000        1.000000000000
 50 H     1 shells
 l=0 nsto= 1
    1       1.200000000000        1.000000000000
 51 H     1 shells
 l=0 nsto= 1
    1       1.200000000000        1.000000000000
 52 H     1 shells
 l=0 nsto= 1
    1       1.200000000000        1.000000000000
 53 H     1 shells
 l=0 nsto= 1
    1       1.200000000000        1.000000000000
------------------------------------------------------------------------------
                           ORCA NDO INTEGRAL CALCULATION
------------------------------------------------------------------------------

--------------
NDO PARAMETERS
--------------

Gamma integral treatment              ... Mataga-Nishimoto
Nuclear repulsuion treatment          ... Direct (ZA*ZB/RAB)
Interaction factors:
s-s (sigma) =    1.0000
s-p (sigma) =    1.0000
s-d (sigma) =    1.0000
p-p (sigma) =    1.2670  p-p(pi) =    0.5850
p-d (sigma) =    1.0000  p-d(pi) =    1.0000
d-d (sigma) =    1.0000  d-d(pi) =    1.0000 d-d (delta) =    1.0000

fGamma parameter for Mataga-Nishimoto gamma integrals:    1.2000

--------------------------
Parameters for Element H :
--------------------------
 One-electron parameters (in eV)
  U(s)  =   -13.060000 Beta(s) =    12.000000 Neff(s) =     1.000000
 One-center electron repulsion parameters (in eV)
  G(s,s)=    12.850000
--------------------------
Parameters for Element C :
--------------------------
 One-electron parameters (in eV)
  U(s)  =   -50.870766 Beta(s) =    17.000000 Neff(s) =     2.000000
  U(p)  =   -41.599980 Beta(p) =    17.000000 Neff(p) =     2.000000 
 One-center electron repulsion parameters (in eV)
  G(s,s)=    11.110000
  G(s,p)=    11.110000 G(p,p)  =    11.110000
 Slater-Condon parameters (in eV)
 F2(p,p)=     4.5098 G1(s,p)=    6.8977
--------------------------
Parameters for Element S :
--------------------------
 One-electron parameters (in eV)
  U(s)  =   -69.509597 Beta(s) =    15.000000 Neff(s) =     2.000000
  U(p)  =   -60.725746 Beta(p) =    15.000000 Neff(p) =     4.000000 
 One-center electron repulsion parameters (in eV)
  G(s,s)=    10.090000
  G(s,p)=    10.090000 G(p,p)  =    10.090000
 Slater-Condon parameters (in eV)
 F2(p,p)=     4.5377 G1(s,p)=    3.0756

 Number of atoms                    ....   54
 Number of basis functions          ....  120

 Overlap integrals                  .... done
 One electron matrix                .... done
 Nuclear repulsion                  .... done
 Integral list                      .... done
 Electron-electron repulsion        .... done
-------------------------------------------------------------------------------
                                 ORCA SCF
-------------------------------------------------------------------------------

------------
SCF SETTINGS
------------
Hamiltonian:
 ZDO-Hamiltonian        Method          .... INDO


General Settings:
 Integral files         IntName         .... /home/mattyjones/Software/morphct/tests/output_EZ/donor_polymer/chromophores/input_orca/pair/00001-00025
 Hartree-Fock type      HFTyp           .... RHF
 Total Charge           Charge          ....    0
 Multiplicity           Mult            ....    1
 Number of Electrons    NEL             ....  124
 Basis Dimension        Dim             ....  120
 Nuclear Repulsion      ENuc            ....    613.6933965607 Eh

Convergence Acceleration:
 DIIS                   CNVDIIS         .... on
   Start iteration      DIISMaxIt       ....    12
   Startup error        DIISStart       ....  0.200000
   # of expansion vecs  DIISMaxEq       ....     5
   Bias factor          DIISBfac        ....   1.050
   Max. coefficient     DIISMaxC        ....  10.000
 Newton-Raphson         CNVNR           .... off
 SOSCF                  CNVSOSCF        .... on
   Start iteration      SOSCFMaxIt      ....   150
   Startup grad/error   SOSCFStart      ....  0.003300
 Level Shifting         CNVShift        .... on
   Level shift para.    LevelShift      ....    0.2500
   Turn off err/grad.   ShiftErr        ....    0.0010
 Zerner damping         CNVZerner       .... off
 Static damping         CNVDamp         .... on
   Fraction old density DampFac         ....    0.7000
   Max. Damping (<1)    DampMax         ....    0.9800
   Min. Damping (>=0)   DampMin         ....    0.0000
   Turn off err/grad.   DampErr         ....    0.1000
 Fernandez-Rico         CNVRico         .... off

SCF Procedure:
 Maximum # iterations   MaxIter         ....   125
 SCF integral mode      SCFMode         .... Conventional
 Integral Buffer length BufferLength    .... 1048576
 Integral index format  IndFormat       ....     0
 Integral value format  ValFormat       ....     0
 Integral Storage       Thresh          ....  1.000e-08 Eh

Convergence Tolerance:
 Convergence Check Mode ConvCheckMode   .... Total+1el-Energy
 Convergence forced     ConvForced      .... 0
 Energy Change          TolE            ....  1.000e-06 Eh
 1-El. energy change                    ....  1.000e-03 Eh
 Orbital Gradient       TolG            ....  5.000e-05
 Orbital Rotation angle TolX            ....  5.000e-05
 DIIS Error             TolErr          ....  1.000e-06


Diagonalization of the overlap matrix:
Smallest eigenvalue                        ... 1.685e-01
Time for diagonalization                   ...    0.003 sec
Threshold for overlap eigenvalues          ... 1.000e-08
Number of eigenvalues below threshold      ... 0
Time for construction of square roots      ...    0.000 sec
Total time needed                          ...    0.004 sec

-------------------------------
INITIAL GUESS: EXTENDED HUECKEL
-------------------------------
EHT matrix was read from disk
EHT matrix was diagonalized
Initial density was built
                      ------------------
                      INITIAL GUESS DONE
                      ------------------

 InCore treatment chosen:
   Memory dedicated               ...    1024 MB
   Memory needed                  ...      0 MB
   Number of tiny    integrals    ...       0
   Number of small   integrals    ...       0
   Number of regular integrals    ...    7392

--------------
SCF ITERATIONS
--------------
ITER       Energy         Delta-E        Max-DP      RMS-DP      [F,P]     Damp
  0    -24.0806624050   0.000000000000 0.04357656  0.00147990  0.1172079 0.7000
  1    -24.1241077267  -0.043445321672 0.04095901  0.00139570  0.0794318 0.7000
                               ***Turning on DIIS***
  2    -24.1562185058  -0.032110779091 0.10317283  0.00358071  0.0500261 0.0000
  3    -24.2402464405  -0.084027934698 0.02130808  0.00074312  0.0244861 0.0000
  4    -24.2228682617   0.017378178765 0.01147871  0.00051560  0.0064445 0.0000
  5    -24.2418982613  -0.019029999562 0.00748237  0.00035122  0.0036981 0.0000
  6    -24.2439897449  -0.002091483634 0.00507922  0.00025153  0.0019596 0.0000
                      *** Initiating the SOSCF procedure ***
                           *** Shutting down DIIS ***
                      *** Re-Reading the Fockian *** 
                      *** Removing any level shift *** 
ITER      Energy       Delta-E        Grad      Rot      Max-DP    RMS-DP
  7    -24.24047303   0.0035167170  0.003243  0.003243  0.003048  0.000145
  8    -24.23853396   0.0019390705  0.000971  0.002782  0.001575  0.000070
  9    -24.23855196  -0.0000180024  0.000430  0.002814  0.001882  0.000078
 10    -24.23855896  -0.0000069992  0.000053  0.000106  0.000148  0.000005
                 **** Energy Check signals convergence ****
              ***Rediagonalizing the Fockian in SOSCF/NRSCF***

               *****************************************************
               *                     SUCCESS                       *
               *           SCF CONVERGED AFTER  11 CYCLES          *
               *****************************************************


----------------
TOTAL SCF ENERGY
----------------

Total Energy       :          -24.23855904 Eh            -659.56472 eV

Components:
Nuclear Repulsion  :          613.69339656 Eh           16699.44630 eV
Electronic Energy  :         -637.93195560 Eh          -17359.01103 eV
One Electron Energy:        -1185.74452588 Eh          -32265.74891 eV
Two Electron Energy:          547.81257028 Eh           14906.73788 eV


---------------
SCF CONVERGENCE
---------------

  Last Energy change         ...   -8.0750e-08  Tolerance :   1.0000e-06
  Last MAX-Density change    ...    6.8136e-05  Tolerance :   1.0000e-05
  Last RMS-Density change    ...    1.9869e-06  Tolerance :   1.0000e-06
  Last Orbital Gradient      ...    2.5672e-05  Tolerance :   5.0000e-05
  Last Orbital Rotation      ...    4.3384e-05  Tolerance :   5.0000e-05

             **** THE GBW FILE WAS UPDATED (/home/mattyjones/Software/morphct/tests/output_EZ/donor_polymer/chromophores/input_orca/pair/00001-00025.gbw) ****
             **** DENSITY FILE WAS UPDATED (/home/mattyjones/Software/morphct/tests/output_EZ/donor_polymer/chromophores/input_orca/pair/00001-00025.scfp.tmp) ****
             **** ENERGY FILE WAS UPDATED (/home/mattyjones/Software/morphct/tests/output_EZ/donor_polymer/chromophores/input_orca/pair/00001-00025.en.tmp) ****
----------------
ORBITAL ENERGIES
----------------

  NO   OCC          E(Eh)            E(eV) 
   0   2.0000      -1.563022       -42.5320 
   1   2.0000      -1.554817       -42.3087 
   2   2.0000      -1.391400       -37.8619 
   3   2.0000      -1.371206       -37.3124 
   4   2.0000      -1.285070       -34.9685 
   5   2.0000      -1.273525       -34.6544 
   6   2.0000      -1.197464       -32.5847 
   7   2.0000      -1.188553       -32.3422 
   8   2.0000      -1.114395       -30.3242 
   9   2.0000      -1.106811       -30.1179 
  10   2.0000      -1.038908       -28.2701 
  11   2.0000      -1.030625       -28.0447 
  12   2.0000      -0.980350       -26.6767 
  13   2.0000      -0.956630       -26.0312 
  14   2.0000      -0.915250       -24.9052 
  15   2.0000      -0.915056       -24.8999 
  16   2.0000      -0.845938       -23.0191 
  17   2.0000      -0.840607       -22.8741 
  18   2.0000      -0.826357       -22.4863 
  19   2.0000      -0.821227       -22.3467 
  20   2.0000      -0.771985       -21.0068 
  21   2.0000      -0.768169       -20.9029 
  22   2.0000      -0.725447       -19.7404 
  23   2.0000      -0.719298       -19.5731 
  24   2.0000      -0.697621       -18.9832 
  25   2.0000      -0.688712       -18.7408 
  26   2.0000      -0.685265       -18.6470 
  27   2.0000      -0.660698       -17.9785 
  28   2.0000      -0.644014       -17.5245 
  29   2.0000      -0.635879       -17.3031 
  30   2.0000      -0.624589       -16.9959 
  31   2.0000      -0.622929       -16.9508 
  32   2.0000      -0.588971       -16.0267 
  33   2.0000      -0.586806       -15.9678 
  34   2.0000      -0.579261       -15.7625 
  35   2.0000      -0.573267       -15.5994 
  36   2.0000      -0.571044       -15.5389 
  37   2.0000      -0.566657       -15.4195 
  38   2.0000      -0.564861       -15.3707 
  39   2.0000      -0.555548       -15.1172 
  40   2.0000      -0.541822       -14.7437 
  41   2.0000      -0.528298       -14.3757 
  42   2.0000      -0.516841       -14.0640 
  43   2.0000      -0.515388       -14.0244 
  44   2.0000      -0.503982       -13.7141 
  45   2.0000      -0.500477       -13.6187 
  46   2.0000      -0.495597       -13.4859 
  47   2.0000      -0.492726       -13.4078 
  48   2.0000      -0.488633       -13.2964 
  49   2.0000      -0.484167       -13.1748 
  50   2.0000      -0.479510       -13.0481 
  51   2.0000      -0.472473       -12.8567 
  52   2.0000      -0.466504       -12.6942 
  53   2.0000      -0.449540       -12.2326 
  54   2.0000      -0.446355       -12.1459 
  55   2.0000      -0.445260       -12.1161 
  56   2.0000      -0.434026       -11.8105 
  57   2.0000      -0.432981       -11.7820 
  58   2.0000      -0.358950        -9.7675 
  59   2.0000      -0.346799        -9.4369 
  60   2.0000      -0.305881        -8.3234 
  61   2.0000      -0.305290        -8.3074 
  62   0.0000       0.002359         0.0642 
  63   0.0000       0.005186         0.1411 
  64   0.0000       0.038158         1.0383 
  65   0.0000       0.054778         1.4906 
  66   0.0000       0.067733         1.8431 
  67   0.0000       0.071347         1.9415 
  68   0.0000       0.075747         2.0612 
  69   0.0000       0.088023         2.3952 
  70   0.0000       0.097432         2.6513 
  71   0.0000       0.105953         2.8831 
  72   0.0000       0.106289         2.8923 
  73   0.0000       0.107869         2.9353 
  74   0.0000       0.122576         3.3355 
  75   0.0000       0.128236         3.4895 
  76   0.0000       0.141295         3.8448 
  77   0.0000       0.143227         3.8974 
  78   0.0000       0.158784         4.3207 
  79   0.0000       0.160716         4.3733 
  80   0.0000       0.166276         4.5246 
  81   0.0000       0.168795         4.5931 
  82   0.0000       0.173536         4.7222 
  83   0.0000       0.179198         4.8762 
  84   0.0000       0.201620         5.4863 
  85   0.0000       0.204282         5.5588 
  86   0.0000       0.226699         6.1688 
  87   0.0000       0.230674         6.2770 
  88   0.0000       0.233093         6.3428 
  89   0.0000       0.235840         6.4175 
  90   0.0000       0.236209         6.4276 
  91   0.0000       0.237100         6.4518 
  92   0.0000       0.237723         6.4688 
  93   0.0000       0.238405         6.4873 
  94   0.0000       0.239121         6.5068 
  95   0.0000       0.239793         6.5251 
  96   0.0000       0.239977         6.5301 
  97   0.0000       0.242423         6.5967 
  98   0.0000       0.242764         6.6059 
  99   0.0000       0.243685         6.6310 
 100   0.0000       0.245857         6.6901 
 101   0.0000       0.246496         6.7075 
 102   0.0000       0.251564         6.8454 
 103   0.0000       0.253030         6.8853 
 104   0.0000       0.264358         7.1935 
 105   0.0000       0.264977         7.2104 
 106   0.0000       0.272102         7.4043 
 107   0.0000       0.285086         7.7576 
 108   0.0000       0.297654         8.0996 
 109   0.0000       0.308255         8.3880 
 110   0.0000       0.308535         8.3957 
 111   0.0000       0.315896         8.5960 
 112   0.0000       0.332599         9.0505 
 113   0.0000       0.345328         9.3968 
 114   0.0000       0.353326         9.6145 
 115   0.0000       0.361894         9.8476 
 116   0.0000       0.400524        10.8988 
 117   0.0000       0.413743        11.2585 
 118   0.0000       0.427100        11.6220 
 119   0.0000       0.437448        11.9036 
-------
TIMINGS
-------

Total SCF time: 0 days 0 hours 0 min 0 sec 

Total time                  ....       0.165 sec
Sum of individual times     ....       0.130 sec  ( 78.5%)

Fock matrix formation       ....       0.065 sec  ( 39.2%)
Diagonalization             ....       0.034 sec  ( 20.5%)
Density matrix formation    ....       0.003 sec  (  1.8%)
Population analysis         ....       0.000 sec  (  0.0%)
Initial guess               ....       0.003 sec  (  1.9%)
Orbital Transformation      ....       0.000 sec  (  0.0%)
Orbital Orthonormalization  ....       0.000 sec  (  0.0%)
DIIS solution               ....       0.005 sec  (  3.1%)
SOSCF solution              ....       0.020 sec  ( 12.0%)

-------------------------   --------------------
FINAL SINGLE POINT ENERGY       -24.238559039719
-------------------------   --------------------


                            ***************************************
                            *     ORCA property calculations      *
                            ***************************************

                                    ---------------------
                                    Active property flags
                                    ---------------------
   (+) Dipole Moment


------------------------------------------------------------------------------
                       ORCA ELECTRIC PROPERTIES CALCULATION
------------------------------------------------------------------------------

Dipole Moment Calculation                       ... on
Quadrupole Moment Calculation                   ... off
Polarizability Calculation                      ... off
GBWName                                         ... /home/mattyjones/Software/morphct/tests/output_EZ/donor_polymer/chromophores/input_orca/pair/00001-00025.gbw
Electron density file                           ... /home/mattyjones/Software/morphct/tests/output_EZ/donor_polymer/chromophores/input_orca/pair/00001-00025.scfp.tmp
The origin for moment calculation is the CENTER OF MASS  = (-0.322306,  0.158014 -0.676643)

-------------
DIPOLE MOMENT
-------------
                                X             Y             Z
Electronic contribution:    -26.89583      16.69705     -77.93121
Nuclear contribution   :     18.26405      -8.25290      40.39992
                        -----------------------------------------
Total Dipole Moment    :     -8.63178       8.44415     -37.53129
                        -----------------------------------------
Magnitude (a.u.)       :     39.42600
Magnitude (Debye)      :    100.21292


Timings for individual modules:

Sum of individual times         ...        0.198 sec (=   0.003 min)
STO integral calculation        ...        0.023 sec (=   0.000 min)  11.6 %
SCF iterations                  ...        0.175 sec (=   0.003 min)  88.4 %
                             ****ORCA TERMINATED NORMALLY****
TOTAL RUN TIME: 0 days 0 hours 0 minutes 0 seconds 486 msec

