
                                 *****************
                                 * O   R   C   A *
                                 *****************

           --- An Ab Initio, DFT and Semiempirical electronic structure package ---

                  #######################################################
                  #                        -***-                        #
                  #  Department of molecular theory and spectroscopy    #
                  #              Directorship: Frank Neese              #
                  # Max Planck Institute for Chemical Energy Conversion #
                  #                  D-45470 Muelheim/Ruhr              #
                  #                       Germany                       #
                  #                                                     #
                  #                  All rights reserved                #
                  #                        -***-                        #
                  #######################################################


                         Program Version 3.0.3 - RELEASE   -


 With contributions from (in alphabetic order):
   Ute Becker             : Parallelization
   Dmytro Bykov           : SCF Hessian
   Dmitry Ganyushin       : Spin-Orbit,Spin-Spin,Magnetic field MRCI
   Andreas Hansen         : Spin unrestricted coupled pair/coupled cluster methods
   Dimitrios Liakos       : Extrapolation schemes; parallel MDCI
   Robert Izsak           : Overlap fitted RIJCOSX, COSX-SCS-MP3
   Christian Kollmar      : KDIIS, OOCD, Brueckner-CCSD(T), CCSD density
   Simone Kossmann        : Meta GGA functionals, TD-DFT gradient, OOMP2, MP2 Hessian
   Taras Petrenko         : DFT Hessian,TD-DFT gradient, ASA and ECA modules, normal mode analysis, Resonance Raman, ABS, FL, XAS/XES, NRVS
   Christoph Reimann      : Effective Core Potentials
   Michael Roemelt        : Restricted open shell CIS
   Christoph Riplinger    : Improved optimizer, TS searches, QM/MM, DLPNO-CCSD
   Barbara Sandhoefer     : DKH picture change effects
   Igor Schapiro          : Molecular dynamics
   Kantharuban Sivalingam : CASSCF convergence, NEVPT2
   Boris Wezisla          : Elementary symmetry handling
   Frank Wennmohs         : Technical directorship


 We gratefully acknowledge several colleagues who have allowed us to
 interface, adapt or use parts of their codes:
   Stefan Grimme, W. Hujo, H. Kruse, T. Risthaus : VdW corrections, initial TS optimization,
                                                   DFT functionals, gCP
   Ed Valeev                                     : LibInt (2-el integral package), F12 methods
   Garnet Chan, S. Sharma, R. Olivares           : DMRG
   Ulf Ekstrom                                   : XCFun DFT Library
   Mihaly Kallay                                 : mrcc  (arbitrary order and MRCC methods)
   Andreas Klamt, Michael Diedenhofen            : otool_cosmo (COSMO solvation model)
   Frank Weinhold                                : gennbo (NPA and NBO analysis)
   Christopher J. Cramer and Donald G. Truhlar   : smd solvation model


 Your calculation uses the libint2 library for the computation of 2-el integrals
 For citations please refer to: http://libint.valeyev.net

 This ORCA versions uses:
   CBLAS   interface :  Fast vector & matrix operations
   LAPACKE interface :  Fast linear algebra routines
   SCALAPACK package :  Parallel linear algebra routines


leaving
================================================================================
                                        WARNINGS
                       Please study these warnings very carefully!
================================================================================
Now building the actual basis set

WARNING: Direct SCF is incompatible with Method<>HF and Method<>DFT
  ===> : conventional SCF is chosen

WARNING: The NDO methods need Guess=HUECKEL or Guess=HCORE or Guess=MOREAD
  ===> : Guess is set to Hueckel

WARNING: The NDO methods need %rel::SOCType==1
  ===> : %rel::SOCType is set to 1

WARNING: The NDO methods cannot have frozencore=1
  ===> : %method FrozenCore=0 end


INFO   : the flag for use of LIBINT has been found!

================================================================================
                                       INPUT FILE
================================================================================
NAME = /Users/mattyjones/GoogleDrive/Boise/Code/MorphCT/tests/output_EZ/donor_polymer/chromophores/input_orca/pair/00006-00007.inp
|  1> # ================================================================
|  2> # Orca input file made by Matty Jones
|  3> # ================================================================
|  4> ! ZINDO/S 
|  5> ! NOPOP
|  6> ! NOMOPRINT
|  7> * xyz 0   1
|  8>  C  -1.63583  1.90322  -0.94941
|  9>  C  -2.03830  0.57482  -0.80354
| 10>  C  -1.32849  -0.14243  0.20936
| 11>  C  -0.36064  0.62346  0.86663
| 12>  S  -0.43305  2.12664  0.16974
| 13>  H  -2.84990  0.08585  -1.44346
| 14>  C  -1.54585  -1.68935  0.64770
| 15>  C  -3.02346  -2.39975  1.08081
| 16>  C  -3.95486  -3.08041  -0.13702
| 17>  H  -4.25802  -2.23989  -0.87098
| 18>  H  -3.30107  -3.85088  -0.69768
| 19>  H  -2.79316  -3.23480  1.84415
| 20>  H  -3.65357  -1.58165  1.59677
| 21>  H  -1.17104  -2.35086  -0.24371
| 22>  H  -0.86600  -1.94861  1.55132
| 23>  C  -5.28898  -3.81633  0.43985
| 24>  C  -6.23584  -4.44851  -0.80445
| 25>  C  -7.24805  -3.27311  -1.45525
| 26>  H  -8.25506  -3.75611  -1.75657
| 27>  H  -6.73995  -2.81596  -2.38990
| 28>  H  -7.43625  -2.44020  -0.67411
| 29>  H  -5.55050  -4.86005  -1.63196
| 30>  H  -6.88398  -5.29910  -0.37663
| 31>  H  -4.98021  -4.69554  1.12657
| 32>  H  -5.92403  -3.07272  1.05327
| 33>  C  0.89983  0.14972  1.78033
| 34>  C  2.14923  0.76841  1.71608
| 35>  C  3.13055  0.19382  2.58275
| 36>  C  2.65362  -0.88403  3.33515
| 37>  S  1.06522  -1.06681  2.89470
| 38>  H  2.32287  1.75748  1.18604
| 39>  C  4.58548  0.88502  2.54227
| 40>  C  5.16399  1.23880  0.95158
| 41>  C  4.86805  2.68672  0.05816
| 42>  H  4.76645  3.51147  0.86610
| 43>  H  5.84853  2.87373  -0.53165
| 44>  H  6.31277  1.17303  1.03311
| 45>  H  4.77764  0.38604  0.27982
| 46>  H  4.58392  1.88132  3.13664
| 47>  H  5.37324  0.16967  3.00939
| 48>  C  3.62917  2.88321  -0.99523
| 49>  C  3.69323  4.30254  -1.93730
| 50>  C  4.26621  4.23843  -3.52153
| 51>  H  3.61631  3.50452  -4.13542
| 52>  H  5.36707  3.88629  -3.52126
| 53>  H  4.19718  5.29707  -3.98760
| 54>  H  2.64684  4.77095  -1.95933
| 55>  H  4.44088  4.97705  -1.38601
| 56>  H  3.59651  1.98752  -1.72230
| 57>  H  2.62558  2.95485  -0.43375
| 58>  H  -2.01843  2.61847  -1.63179
| 59>  H  3.19415  -1.46303  4.03955
| 60> *
| 61> 
| 62>                          ****END OF INPUT****
================================================================================

                       ****************************
                       * Single Point Calculation *
                       ****************************

---------------------------------
CARTESIAN COORDINATES (ANGSTROEM)
---------------------------------
  C     -1.635830    1.903220   -0.949410
  C     -2.038300    0.574820   -0.803540
  C     -1.328490   -0.142430    0.209360
  C     -0.360640    0.623460    0.866630
  S     -0.433050    2.126640    0.169740
  H     -2.849900    0.085850   -1.443460
  C     -1.545850   -1.689350    0.647700
  C     -3.023460   -2.399750    1.080810
  C     -3.954860   -3.080410   -0.137020
  H     -4.258020   -2.239890   -0.870980
  H     -3.301070   -3.850880   -0.697680
  H     -2.793160   -3.234800    1.844150
  H     -3.653570   -1.581650    1.596770
  H     -1.171040   -2.350860   -0.243710
  H     -0.866000   -1.948610    1.551320
  C     -5.288980   -3.816330    0.439850
  C     -6.235840   -4.448510   -0.804450
  C     -7.248050   -3.273110   -1.455250
  H     -8.255060   -3.756110   -1.756570
  H     -6.739950   -2.815960   -2.389900
  H     -7.436250   -2.440200   -0.674110
  H     -5.550500   -4.860050   -1.631960
  H     -6.883980   -5.299100   -0.376630
  H     -4.980210   -4.695540    1.126570
  H     -5.924030   -3.072720    1.053270
  C      0.899830    0.149720    1.780330
  C      2.149230    0.768410    1.716080
  C      3.130550    0.193820    2.582750
  C      2.653620   -0.884030    3.335150
  S      1.065220   -1.066810    2.894700
  H      2.322870    1.757480    1.186040
  C      4.585480    0.885020    2.542270
  C      5.163990    1.238800    0.951580
  C      4.868050    2.686720    0.058160
  H      4.766450    3.511470    0.866100
  H      5.848530    2.873730   -0.531650
  H      6.312770    1.173030    1.033110
  H      4.777640    0.386040    0.279820
  H      4.583920    1.881320    3.136640
  H      5.373240    0.169670    3.009390
  C      3.629170    2.883210   -0.995230
  C      3.693230    4.302540   -1.937300
  C      4.266210    4.238430   -3.521530
  H      3.616310    3.504520   -4.135420
  H      5.367070    3.886290   -3.521260
  H      4.197180    5.297070   -3.987600
  H      2.646840    4.770950   -1.959330
  H      4.440880    4.977050   -1.386010
  H      3.596510    1.987520   -1.722300
  H      2.625580    2.954850   -0.433750
  H     -2.018430    2.618470   -1.631790
  H      3.194150   -1.463030    4.039550

----------------------------
CARTESIAN COORDINATES (A.U.)
----------------------------
  NO LB      ZA    FRAG    MASS        X           Y           Z
   0 C     4.0000    0    12.011         -3.091270701652401          3.596564572601604         -1.794124888806176
   1 C     4.0000    0    12.011         -3.851828778771687          1.086252376300614         -1.518470537651083
   2 C     4.0000    0    12.011         -2.510482271653044         -0.269153693254404          0.395633063397753
   3 C     4.0000    0    12.011         -0.681510832937360          1.178168655454544          1.637693359440174
   4 S     6.0000    0    32.060         -0.818345902294598          4.018767185442290          0.320762113971793
   5 H     1.0000    0     1.008         -5.385530509062175          0.162232988597139         -2.727744085269970
   6 C     4.0000    0    12.011         -2.921233144122167         -3.192408844339866          1.223975616940795
   7 C     4.0000    0    12.011         -5.713511376865547         -4.534870289877523          2.042434902803428
   8 C     4.0000    0    12.011         -7.473602297999801         -5.821131280192363         -0.258930274869890
   9 H     1.0000    0     1.008         -8.046491672759368         -4.232778670108872         -1.645913668122732
  10 H     1.0000    0     1.008         -6.238118248903427         -7.277108574594670         -1.318424129114179
  11 H     1.0000    0     1.008         -5.278307448223483         -6.112886098008465          3.484938449870876
  12 H     1.0000    0     1.008         -6.904246711110668         -2.988885339716548          3.017457998861437
  13 H     1.0000    0     1.008         -2.212944891867143         -4.442481579190114         -0.460545156097948
  14 H     1.0000    0     1.008         -1.636502831975804         -3.682339241820290          2.931569946074716
  15 C     4.0000    0    12.011         -9.994723727786821         -7.211818536667690          0.831196040005263
  16 C     4.0000    0    12.011        -11.784029814951497         -8.406465604010027         -1.520190188432951
  17 C     4.0000    0    12.011        -13.696829504967928         -6.185281506198988         -2.750023956388902
  18 H     1.0000    0     1.008        -15.599802619087969         -7.098019228882952         -3.319436235062053
  19 H     1.0000    0     1.008        -12.736659656322541         -5.321393204076887         -4.516256487458399
  20 H     1.0000    0     1.008        -14.052475963371908         -4.611309711994638         -1.273883284137655
  21 H     1.0000    0     1.008        -10.488924906329908         -9.184163497163979         -3.083957461514126
  22 H     1.0000    0     1.008        -13.008836911391219        -10.013847756262106         -0.711727553818761
  23 H     1.0000    0     1.008         -9.411232989415955         -8.873284650872595          2.128908770691665
  24 H     1.0000    0     1.008        -11.194794309133513         -5.806599286222508          1.990391845075237
  25 C     4.0000    0    12.011          1.700432267086360          0.282929796770690          3.364336128004022
  26 C     4.0000    0    12.011          4.061456098807572          1.452084458566429          3.242921223899581
  27 C     4.0000    0    12.011          5.915882148547174          0.366266719276617          4.880690172385113
  28 C     4.0000    0    12.011          5.014615063496112         -1.670574594170404          6.302520115547463
  29 S     6.0000    0    32.060          2.012974072375596         -2.015978736928531          5.470190239861846
  30 H     1.0000    0     1.008          4.389588144701658          3.321155885843921          2.241290783875961
  31 C     4.0000    0    12.011          8.665301392573220          1.672445423042986          4.804194058483980
  32 C     4.0000    0    12.011          9.758526858308004          2.340992734701646          1.798225594516785
  33 C     4.0000    0    12.011          9.199281306235349          5.077164998528906          0.109906471948860
  34 H     1.0000    0     1.008          9.007285131028949          6.635716627480457          1.636691804589196
  35 H     1.0000    0     1.008         11.052119986022458          5.430562682833519         -1.004672899099233
  36 H     1.0000    0     1.008         11.929406446434061          2.216705446873646          1.952294966215384
  37 H     1.0000    0     1.008          9.028431166467529          0.729509876738960          0.528783166793845
  38 H     1.0000    0     1.008          8.662353419804305          3.555179570268729          5.927390580702754
  39 H     1.0000    0     1.008         10.153952051831027          0.320629833142419          5.686922930161275
  40 C     4.0000    0    12.011          6.858137393442989          5.448477286583092         -1.880712140262447
  41 C     4.0000    0    12.011          6.979193249581984          8.130622280241541         -3.660966439245641
  42 C     4.0000    0    12.011          8.061968529796182          8.009471937795851         -6.654727272387705
  43 H     1.0000    0     1.008          6.833835515360762          6.622583030849705         -7.814811248740622
  44 H     1.0000    0     1.008         10.142292441584733          7.344023776996821         -6.654217046331547
  45 H     1.0000    0     1.008          7.931520734771600         10.010011612210244         -7.535471931624383
  46 H     1.0000    0     1.008          5.001802720308126          9.015788898631596         -3.702597105975926
  47 H     1.0000    0     1.008          8.392046993608208          9.405261454832766         -2.619179318876194
  48 H     1.0000    0     1.008          6.796418937909120          3.755868485691166         -3.254675320452572
  49 H     1.0000    0     1.008          4.961627142700960          5.583857266817210         -0.819668710588343
  50 H     1.0000    0     1.008         -3.814279920490672          4.948191189888780         -3.083636208071360
  51 H     1.0000    0     1.008          6.036068730664566         -2.764726025710809          7.633643204281593

--------------------------------
INTERNAL COORDINATES (ANGSTROEM)
--------------------------------
 C      0   0   0   0.000000     0.000     0.000
 C      1   0   0   1.395674     0.000     0.000
 C      2   1   0   1.429771   114.102     0.000
 C      3   2   1   1.398329   113.694     0.000
 S      1   2   3   1.658039   105.480     0.000
 H      2   1   3   1.143365   123.590   181.022
 C      3   2   1   1.622451   127.099   179.543
 C      7   3   2   1.695755   125.815   307.580
 C      8   7   3   1.677472   117.929    89.284
 H      9   8   7   1.156321   108.146   297.221
 H      9   8   7   1.155597   107.977    54.991
 H      8   7   3   1.154571   107.340   210.481
 H      8   7   3   1.154357   107.031   327.403
 H      7   3   2   1.171618   106.853    69.140
 H      7   3   2   1.160147   110.181   184.094
 C      9   8   7   1.629182   112.390   175.878
 C     16   9   8   1.686558   111.581   178.111
 C     17  16   9   1.682164   111.183   276.142
 H     18  17  16   1.156785   109.442   215.352
 H     18  17  16   1.157896   108.912    95.469
 H     18  17  16   1.157298   109.853   335.675
 H     17  16   9   1.150578   109.286    36.851
 H     17  16   9   1.151789   108.584   156.563
 H     16   9   8   1.157555   109.556   297.188
 H     16   9   8   1.154352   110.345    56.843
 C      4   3   2   1.627287   129.836   197.409
 C     26   4   3   1.395674   122.582   140.020
 C     27  26   4   1.429776   114.102   180.883
 C     28  27  26   1.398331   113.693     0.000
 S     26   4   3   1.658047   131.931   321.164
 H     27  26   4   1.135497   122.991    12.331
 C     28  27  26   1.611278   115.602   180.259
 C     32  28  27   1.729199   114.391   315.784
 C     33  32  28   1.726920   126.165    87.991
 H     34  33  32   1.159009   104.538    30.531
 H     34  33  32   1.159392   104.685   144.314
 H     33  32  28   1.153546   104.862   209.378
 H     33  32  28   1.152271   105.825   325.050
 H     32  28  27   1.160126   110.751    77.077
 H     32  28  27   1.162107   109.751   197.325
 C     34  33  32   1.638006   124.256   267.344
 C     41  34  33   1.704728   115.267   189.470
 C     42  41  34   1.685883   120.027    99.491
 H     43  42  41   1.156657   109.385    58.873
 H     43  42  41   1.155809   109.577   298.216
 H     43  42  41   1.158751   108.843   178.397
 H     42  41  34   1.146658   108.448   224.058
 H     42  41  34   1.147983   104.376   342.816
 H     41  34  33   1.154105   109.478   310.651
 H     41  34  33   1.152209   110.662    71.192
 H      1   2   3   1.060004   127.260   180.000
 H     29  28  27   1.059997   127.206   180.001

---------------------------
INTERNAL COORDINATES (A.U.)
---------------------------
 C      0   0   0   0.000000     0.000     0.000
 C      1   0   0   2.637442     0.000     0.000
 C      2   1   0   2.701875   114.102     0.000
 C      3   2   1   2.642460   113.694     0.000
 S      1   2   3   3.133239   105.480     0.000
 H      2   1   3   2.160647   123.590   181.022
 C      3   2   1   3.065989   127.099   179.543
 C      7   3   2   3.204512   125.815   307.580
 C      8   7   3   3.169964   117.929    89.284
 H      9   8   7   2.185129   108.146   297.221
 H      9   8   7   2.183762   107.977    54.991
 H      8   7   3   2.181823   107.340   210.481
 H      8   7   3   2.181419   107.031   327.403
 H      7   3   2   2.214038   106.853    69.140
 H      7   3   2   2.192360   110.181   184.094
 C      9   8   7   3.078707   112.390   175.878
 C     16   9   8   3.187133   111.581   178.111
 C     17  16   9   3.178829   111.183   276.142
 H     18  17  16   2.186007   109.442   215.352
 H     18  17  16   2.188106   108.912    95.469
 H     18  17  16   2.186976   109.853   335.675
 H     17  16   9   2.174277   109.286    36.851
 H     17  16   9   2.176566   108.584   156.563
 H     16   9   8   2.187462   109.556   297.188
 H     16   9   8   2.181409   110.345    56.843
 C      4   3   2   3.075126   129.836   197.409
 C     26   4   3   2.637442   122.582   140.020
 C     27  26   4   2.701885   114.102   180.883
 C     28  27  26   2.642462   113.693     0.000
 S     26   4   3   3.133255   131.931   321.164
 H     27  26   4   2.145778   122.991    12.331
 C     28  27  26   3.044874   115.602   180.259
 C     32  28  27   3.267712   114.391   315.784
 C     33  32  28   3.263406   126.165    87.991
 H     34  33  32   2.190210   104.538    30.531
 H     34  33  32   2.190933   104.685   144.314
 H     33  32  28   2.179886   104.862   209.378
 H     33  32  28   2.177476   105.825   325.050
 H     32  28  27   2.192320   110.751    77.077
 H     32  28  27   2.196064   109.751   197.325
 C     34  33  32   3.095382   124.256   267.344
 C     41  34  33   3.221469   115.267   189.470
 C     42  41  34   3.185857   120.027    99.491
 H     43  42  41   2.185764   109.385    58.873
 H     43  42  41   2.184163   109.577   298.216
 H     43  42  41   2.189723   108.843   178.397
 H     42  41  34   2.166870   108.448   224.058
 H     42  41  34   2.169373   104.376   342.816
 H     41  34  33   2.180942   109.478   310.651
 H     41  34  33   2.177359   110.662    71.192
 H      1   2   3   2.003117   127.260   180.000
 H     29  28  27   2.003103   127.206   180.001

----------------------------
SLATER BASIS SET DIM= 118
----------------------------
  0 C     2 shells
 l=0 nsto= 1
    2       1.625000000000        1.000000000000
 l=1 nsto= 1
    2       1.625000000000        1.000000000000
  1 C     2 shells
 l=0 nsto= 1
    2       1.625000000000        1.000000000000
 l=1 nsto= 1
    2       1.625000000000        1.000000000000
  2 C     2 shells
 l=0 nsto= 1
    2       1.625000000000        1.000000000000
 l=1 nsto= 1
    2       1.625000000000        1.000000000000
  3 C     2 shells
 l=0 nsto= 1
    2       1.625000000000        1.000000000000
 l=1 nsto= 1
    2       1.625000000000        1.000000000000
  4 S     2 shells
 l=0 nsto= 1
    3       1.925000000000        1.000000000000
 l=1 nsto= 1
    3       1.925000000000        1.000000000000
  5 H     1 shells
 l=0 nsto= 1
    1       1.200000000000        1.000000000000
  6 C     2 shells
 l=0 nsto= 1
    2       1.625000000000        1.000000000000
 l=1 nsto= 1
    2       1.625000000000        1.000000000000
  7 C     2 shells
 l=0 nsto= 1
    2       1.625000000000        1.000000000000
 l=1 nsto= 1
    2       1.625000000000        1.000000000000
  8 C     2 shells
 l=0 nsto= 1
    2       1.625000000000        1.000000000000
 l=1 nsto= 1
    2       1.625000000000        1.000000000000
  9 H     1 shells
 l=0 nsto= 1
    1       1.200000000000        1.000000000000
 10 H     1 shells
 l=0 nsto= 1
    1       1.200000000000        1.000000000000
 11 H     1 shells
 l=0 nsto= 1
    1       1.200000000000        1.000000000000
 12 H     1 shells
 l=0 nsto= 1
    1       1.200000000000        1.000000000000
 13 H     1 shells
 l=0 nsto= 1
    1       1.200000000000        1.000000000000
 14 H     1 shells
 l=0 nsto= 1
    1       1.200000000000        1.000000000000
 15 C     2 shells
 l=0 nsto= 1
    2       1.625000000000        1.000000000000
 l=1 nsto= 1
    2       1.625000000000        1.000000000000
 16 C     2 shells
 l=0 nsto= 1
    2       1.625000000000        1.000000000000
 l=1 nsto= 1
    2       1.625000000000        1.000000000000
 17 C     2 shells
 l=0 nsto= 1
    2       1.625000000000        1.000000000000
 l=1 nsto= 1
    2       1.625000000000        1.000000000000
 18 H     1 shells
 l=0 nsto= 1
    1       1.200000000000        1.000000000000
 19 H     1 shells
 l=0 nsto= 1
    1       1.200000000000        1.000000000000
 20 H     1 shells
 l=0 nsto= 1
    1       1.200000000000        1.000000000000
 21 H     1 shells
 l=0 nsto= 1
    1       1.200000000000        1.000000000000
 22 H     1 shells
 l=0 nsto= 1
    1       1.200000000000        1.000000000000
 23 H     1 shells
 l=0 nsto= 1
    1       1.200000000000        1.000000000000
 24 H     1 shells
 l=0 nsto= 1
    1       1.200000000000        1.000000000000
 25 C     2 shells
 l=0 nsto= 1
    2       1.625000000000        1.000000000000
 l=1 nsto= 1
    2       1.625000000000        1.000000000000
 26 C     2 shells
 l=0 nsto= 1
    2       1.625000000000        1.000000000000
 l=1 nsto= 1
    2       1.625000000000        1.000000000000
 27 C     2 shells
 l=0 nsto= 1
    2       1.625000000000        1.000000000000
 l=1 nsto= 1
    2       1.625000000000        1.000000000000
 28 C     2 shells
 l=0 nsto= 1
    2       1.625000000000        1.000000000000
 l=1 nsto= 1
    2       1.625000000000        1.000000000000
 29 S     2 shells
 l=0 nsto= 1
    3       1.925000000000        1.000000000000
 l=1 nsto= 1
    3       1.925000000000        1.000000000000
 30 H     1 shells
 l=0 nsto= 1
    1       1.200000000000        1.000000000000
 31 C     2 shells
 l=0 nsto= 1
    2       1.625000000000        1.000000000000
 l=1 nsto= 1
    2       1.625000000000        1.000000000000
 32 C     2 shells
 l=0 nsto= 1
    2       1.625000000000        1.000000000000
 l=1 nsto= 1
    2       1.625000000000        1.000000000000
 33 C     2 shells
 l=0 nsto= 1
    2       1.625000000000        1.000000000000
 l=1 nsto= 1
    2       1.625000000000        1.000000000000
 34 H     1 shells
 l=0 nsto= 1
    1       1.200000000000        1.000000000000
 35 H     1 shells
 l=0 nsto= 1
    1       1.200000000000        1.000000000000
 36 H     1 shells
 l=0 nsto= 1
    1       1.200000000000        1.000000000000
 37 H     1 shells
 l=0 nsto= 1
    1       1.200000000000        1.000000000000
 38 H     1 shells
 l=0 nsto= 1
    1       1.200000000000        1.000000000000
 39 H     1 shells
 l=0 nsto= 1
    1       1.200000000000        1.000000000000
 40 C     2 shells
 l=0 nsto= 1
    2       1.625000000000        1.000000000000
 l=1 nsto= 1
    2       1.625000000000        1.000000000000
 41 C     2 shells
 l=0 nsto= 1
    2       1.625000000000        1.000000000000
 l=1 nsto= 1
    2       1.625000000000        1.000000000000
 42 C     2 shells
 l=0 nsto= 1
    2       1.625000000000        1.000000000000
 l=1 nsto= 1
    2       1.625000000000        1.000000000000
 43 H     1 shells
 l=0 nsto= 1
    1       1.200000000000        1.000000000000
 44 H     1 shells
 l=0 nsto= 1
    1       1.200000000000        1.000000000000
 45 H     1 shells
 l=0 nsto= 1
    1       1.200000000000        1.000000000000
 46 H     1 shells
 l=0 nsto= 1
    1       1.200000000000        1.000000000000
 47 H     1 shells
 l=0 nsto= 1
    1       1.200000000000        1.000000000000
 48 H     1 shells
 l=0 nsto= 1
    1       1.200000000000        1.000000000000
 49 H     1 shells
 l=0 nsto= 1
    1       1.200000000000        1.000000000000
 50 H     1 shells
 l=0 nsto= 1
    1       1.200000000000        1.000000000000
 51 H     1 shells
 l=0 nsto= 1
    1       1.200000000000        1.000000000000
------------------------------------------------------------------------------
                           ORCA NDO INTEGRAL CALCULATION
------------------------------------------------------------------------------

--------------
NDO PARAMETERS
--------------

Gamma integral treatment              ... Mataga-Nishimoto
Nuclear repulsuion treatment          ... Direct (ZA*ZB/RAB)
Interaction factors:
s-s (sigma) =    1.0000
s-p (sigma) =    1.0000
s-d (sigma) =    1.0000
p-p (sigma) =    1.2670  p-p(pi) =    0.5850
p-d (sigma) =    1.0000  p-d(pi) =    1.0000
d-d (sigma) =    1.0000  d-d(pi) =    1.0000 d-d (delta) =    1.0000

fGamma parameter for Mataga-Nishimoto gamma integrals:    1.2000

--------------------------
Parameters for Element H :
--------------------------
 One-electron parameters (in eV)
  U(s)  =   -13.060000 Beta(s) =    12.000000 Neff(s) =     1.000000
 One-center electron repulsion parameters (in eV)
  G(s,s)=    12.850000
--------------------------
Parameters for Element C :
--------------------------
 One-electron parameters (in eV)
  U(s)  =   -50.870766 Beta(s) =    17.000000 Neff(s) =     2.000000
  U(p)  =   -41.599980 Beta(p) =    17.000000 Neff(p) =     2.000000 
 One-center electron repulsion parameters (in eV)
  G(s,s)=    11.110000
  G(s,p)=    11.110000 G(p,p)  =    11.110000
 Slater-Condon parameters (in eV)
 F2(p,p)=     4.5098 G1(s,p)=    6.8977
--------------------------
Parameters for Element S :
--------------------------
 One-electron parameters (in eV)
  U(s)  =   -69.509597 Beta(s) =    15.000000 Neff(s) =     2.000000
  U(p)  =   -60.725746 Beta(p) =    15.000000 Neff(p) =     4.000000 
 One-center electron repulsion parameters (in eV)
  G(s,s)=    10.090000
  G(s,p)=    10.090000 G(p,p)  =    10.090000
 Slater-Condon parameters (in eV)
 F2(p,p)=     4.5377 G1(s,p)=    3.0756

 Number of atoms                    ....   52
 Number of basis functions          ....  118

 Overlap integrals                  .... done
 One electron matrix                .... done
 Nuclear repulsion                  .... done
 Integral list                      .... done
 Electron-electron repulsion        .... done
-------------------------------------------------------------------------------
                                 ORCA SCF
-------------------------------------------------------------------------------

------------
SCF SETTINGS
------------
Hamiltonian:
 ZDO-Hamiltonian        Method          .... INDO


General Settings:
 Integral files         IntName         .... /Users/mattyjones/GoogleDrive/Boise/Code/MorphCT/tests/output_EZ/donor_polymer/chromophores/input_orca/pair/00006-00007
 Hartree-Fock type      HFTyp           .... RHF
 Total Charge           Charge          ....    0
 Multiplicity           Mult            ....    1
 Number of Electrons    NEL             ....  122
 Basis Dimension        Dim             ....  118
 Nuclear Repulsion      ENuc            ....    856.6606818930 Eh

Convergence Acceleration:
 DIIS                   CNVDIIS         .... on
   Start iteration      DIISMaxIt       ....    12
   Startup error        DIISStart       ....  0.200000
   # of expansion vecs  DIISMaxEq       ....     5
   Bias factor          DIISBfac        ....   1.050
   Max. coefficient     DIISMaxC        ....  10.000
 Newton-Raphson         CNVNR           .... off
 SOSCF                  CNVSOSCF        .... on
   Start iteration      SOSCFMaxIt      ....   150
   Startup grad/error   SOSCFStart      ....  0.003300
 Level Shifting         CNVShift        .... on
   Level shift para.    LevelShift      ....    0.2500
   Turn off err/grad.   ShiftErr        ....    0.0010
 Zerner damping         CNVZerner       .... off
 Static damping         CNVDamp         .... on
   Fraction old density DampFac         ....    0.7000
   Max. Damping (<1)    DampMax         ....    0.9800
   Min. Damping (>=0)   DampMin         ....    0.0000
   Turn off err/grad.   DampErr         ....    0.1000
 Fernandez-Rico         CNVRico         .... off

SCF Procedure:
 Maximum # iterations   MaxIter         ....   125
 SCF integral mode      SCFMode         .... Conventional
 Integral Buffer length BufferLength    .... 1048576
 Integral index format  IndFormat       ....     0
 Integral value format  ValFormat       ....     0
 Integral Storage       Thresh          ....  1.000e-08 Eh

Convergence Tolerance:
 Convergence Check Mode ConvCheckMode   .... Total+1el-Energy
 Energy Change          TolE            ....  1.000e-06 Eh
 1-El. energy change                    ....  1.000e-03 Eh
 Orbital Gradient       TolG            ....  5.000e-05
 Orbital Rotation angle TolX            ....  5.000e-05
 DIIS Error             TolErr          ....  1.000e-06


Diagonalization of the overlap matrix:
Smallest eigenvalue                        ... 1.675e-01
Time for diagonalization                   ...    0.003 sec
Threshold for overlap eigenvalues          ... 1.000e-08
Number of eigenvalues below threshold      ... 0
Time for construction of square roots      ...    0.001 sec
Total time needed                          ...    0.004 sec

-------------------------------
INITIAL GUESS: EXTENDED HUECKEL
-------------------------------
EHT matrix was read from disk
EHT matrix was diagonalized
Initial density was built
                      ------------------
                      INITIAL GUESS DONE
                      ------------------

 InCore treatment chosen:
   Memory dedicated               ...    1024 MB
   Memory needed                  ...      0 MB
   Number of tiny    integrals    ...       0
   Number of small   integrals    ...       0
   Number of regular integrals    ...    7153

--------------
SCF ITERATIONS
--------------
ITER       Energy         Delta-E        Max-DP      RMS-DP      [F,P]     Damp
  0     -1.8724078461   0.000000000000 0.03779229  0.00142576  0.1051335 0.7000
  1     -1.9120663446  -0.039658498538 0.03500575  0.00134880  0.0721104 0.7000
                               ***Turning on DIIS***
  2     -1.9417547927  -0.029688448073 0.08746155  0.00348991  0.0460704 0.0000
  3     -2.0231901535  -0.081435360775 0.01675219  0.00074989  0.0195066 0.0000
  4     -2.0015189216   0.021671231885 0.01082123  0.00051565  0.0064211 0.0000
  5     -2.0201433550  -0.018624433365 0.00699820  0.00034659  0.0036829 0.0000
  6     -2.0234568873  -0.003313532318 0.00520171  0.00025151  0.0019559 0.0000
                      *** Initiating the SOSCF procedure ***
                           *** Shutting down DIIS ***
                      *** Re-Reading the Fockian *** 
                      *** Removing any level shift *** 
ITER      Energy       Delta-E        Grad      Rot      Max-DP    RMS-DP
  7     -2.02013675   0.0033201388  0.003115  0.003115  0.003146  0.000145
  8     -2.01971872   0.0004180236  0.000890  0.002552  0.001650  0.000073
  9     -2.01973738  -0.0000186516  0.000378  0.002393  0.001890  0.000077
 10     -2.01974418  -0.0000068061  0.000033  0.000080  0.000158  0.000005
                 **** Energy Check signals convergence ****
              ***Rediagonalizing the Fockian in SOSCF/NRSCF***

               *****************************************************
               *                     SUCCESS                       *
               *           SCF CONVERGED AFTER  11 CYCLES          *
               *****************************************************


----------------
TOTAL SCF ENERGY
----------------

Total Energy       :           -2.01974426 Eh             -54.96004 eV

Components:
Nuclear Repulsion  :          856.66068189 Eh           23310.92226 eV
Electronic Energy  :         -858.68042616 Eh          -23365.88229 eV

One Electron Energy:        -1628.34717858 Eh          -44309.57938 eV
Two Electron Energy:          769.66675242 Eh           20943.69709 eV


---------------
SCF CONVERGENCE
---------------

  Last Energy change         ...   -7.9965e-08  Tolerance :   1.0000e-06
  Last MAX-Density change    ...    7.3260e-05  Tolerance :   1.0000e-05
  Last RMS-Density change    ...    2.1147e-06  Tolerance :   1.0000e-06
  Last Orbital Gradient      ...    1.6497e-05  Tolerance :   5.0000e-05
  Last Orbital Rotation      ...    5.6931e-05  Tolerance :   5.0000e-05

             **** THE GBW FILE WAS UPDATED (/Users/mattyjones/GoogleDrive/Boise/Code/MorphCT/tests/output_EZ/donor_polymer/chromophores/input_orca/pair/00006-00007.gbw) ****
             **** DENSITY FILE WAS UPDATED (/Users/mattyjones/GoogleDrive/Boise/Code/MorphCT/tests/output_EZ/donor_polymer/chromophores/input_orca/pair/00006-00007.scfp.tmp) ****
             **** ENERGY FILE WAS UPDATED (/Users/mattyjones/GoogleDrive/Boise/Code/MorphCT/tests/output_EZ/donor_polymer/chromophores/input_orca/pair/00006-00007.en.tmp) ****
----------------
ORBITAL ENERGIES
----------------

  NO   OCC          E(Eh)            E(eV) 
   0   2.0000      -1.573483       -42.8166 
   1   2.0000      -1.541087       -41.9351 
   2   2.0000      -1.410885       -38.3921 
   3   2.0000      -1.384457       -37.6730 
   4   2.0000      -1.299904       -35.3722 
   5   2.0000      -1.287846       -35.0441 
   6   2.0000      -1.206681       -32.8355 
   7   2.0000      -1.172578       -31.9075 
   8   2.0000      -1.142223       -31.0815 
   9   2.0000      -1.070542       -29.1309 
  10   2.0000      -1.052526       -28.6407 
  11   2.0000      -1.026717       -27.9384 
  12   2.0000      -0.973519       -26.4908 
  13   2.0000      -0.949517       -25.8377 
  14   2.0000      -0.900201       -24.4957 
  15   2.0000      -0.883475       -24.0406 
  16   2.0000      -0.874079       -23.7849 
  17   2.0000      -0.862561       -23.4715 
  18   2.0000      -0.856919       -23.3179 
  19   2.0000      -0.801895       -21.8207 
  20   2.0000      -0.767392       -20.8818 
  21   2.0000      -0.746895       -20.3241 
  22   2.0000      -0.719903       -19.5895 
  23   2.0000      -0.699297       -19.0289 
  24   2.0000      -0.694110       -18.8877 
  25   2.0000      -0.682876       -18.5820 
  26   2.0000      -0.678448       -18.4615 
  27   2.0000      -0.665253       -18.1024 
  28   2.0000      -0.629906       -17.1406 
  29   2.0000      -0.626774       -17.0554 
  30   2.0000      -0.615753       -16.7555 
  31   2.0000      -0.612897       -16.6778 
  32   2.0000      -0.609829       -16.5943 
  33   2.0000      -0.597203       -16.2507 
  34   2.0000      -0.570733       -15.5304 
  35   2.0000      -0.565943       -15.4001 
  36   2.0000      -0.562942       -15.3184 
  37   2.0000      -0.554191       -15.0803 
  38   2.0000      -0.550459       -14.9787 
  39   2.0000      -0.540524       -14.7084 
  40   2.0000      -0.536391       -14.5959 
  41   2.0000      -0.517909       -14.0930 
  42   2.0000      -0.515409       -14.0250 
  43   2.0000      -0.504587       -13.7305 
  44   2.0000      -0.499206       -13.5841 
  45   2.0000      -0.496762       -13.5176 
  46   2.0000      -0.493787       -13.4366 
  47   2.0000      -0.491196       -13.3661 
  48   2.0000      -0.485134       -13.2012 
  49   2.0000      -0.478616       -13.0238 
  50   2.0000      -0.475629       -12.9425 
  51   2.0000      -0.472973       -12.8702 
  52   2.0000      -0.464093       -12.6286 
  53   2.0000      -0.458471       -12.4756 
  54   2.0000      -0.455674       -12.3995 
  55   2.0000      -0.441921       -12.0253 
  56   2.0000      -0.431737       -11.7482 
  57   2.0000      -0.361345        -9.8327 
  58   2.0000      -0.355817        -9.6823 
  59   2.0000      -0.328297        -8.9334 
  60   2.0000      -0.279519        -7.6061 
  61   0.0000      -0.012633        -0.3438 
  62   0.0000       0.022216         0.6045 
  63   0.0000       0.047720         1.2985 
  64   0.0000       0.062498         1.7007 
  65   0.0000       0.066432         1.8077 
  66   0.0000       0.075179         2.0457 
  67   0.0000       0.081121         2.2074 
  68   0.0000       0.086320         2.3489 
  69   0.0000       0.091484         2.4894 
  70   0.0000       0.104633         2.8472 
  71   0.0000       0.106619         2.9013 
  72   0.0000       0.117722         3.2034 
  73   0.0000       0.124172         3.3789 
  74   0.0000       0.134239         3.6528 
  75   0.0000       0.141295         3.8448 
  76   0.0000       0.144923         3.9436 
  77   0.0000       0.152985         4.1629 
  78   0.0000       0.157255         4.2791 
  79   0.0000       0.161072         4.3830 
  80   0.0000       0.171105         4.6560 
  81   0.0000       0.174896         4.7592 
  82   0.0000       0.186969         5.0877 
  83   0.0000       0.203592         5.5400 
  84   0.0000       0.210569         5.7299 
  85   0.0000       0.233539         6.3549 
  86   0.0000       0.234763         6.3882 
  87   0.0000       0.234885         6.3916 
  88   0.0000       0.237069         6.4510 
  89   0.0000       0.237804         6.4710 
  90   0.0000       0.238022         6.4769 
  91   0.0000       0.239029         6.5043 
  92   0.0000       0.239086         6.5059 
  93   0.0000       0.240515         6.5447 
  94   0.0000       0.241840         6.5808 
  95   0.0000       0.242654         6.6030 
  96   0.0000       0.243811         6.6344 
  97   0.0000       0.243831         6.6350 
  98   0.0000       0.245466         6.6795 
  99   0.0000       0.246016         6.6944 
 100   0.0000       0.253836         6.9072 
 101   0.0000       0.255599         6.9552 
 102   0.0000       0.266868         7.2618 
 103   0.0000       0.272202         7.4070 
 104   0.0000       0.274977         7.4825 
 105   0.0000       0.282410         7.6848 
 106   0.0000       0.290516         7.9053 
 107   0.0000       0.300634         8.1807 
 108   0.0000       0.307072         8.3559 
 109   0.0000       0.329856         8.9758 
 110   0.0000       0.336360         9.1528 
 111   0.0000       0.339835         9.2474 
 112   0.0000       0.355673         9.6784 
 113   0.0000       0.356433         9.6990 
 114   0.0000       0.392068        10.6687 
 115   0.0000       0.420210        11.4345 
 116   0.0000       0.429171        11.6783 
 117   0.0000       0.464690        12.6449 
-------
TIMINGS
-------

Total SCF time: 0 days 0 hours 0 min 0 sec 

Total time                  ....       0.139 sec
Sum of individual times     ....       0.107 sec  ( 77.2%)

Fock matrix formation       ....       0.049 sec  ( 35.2%)
Diagonalization             ....       0.023 sec  ( 16.3%)
Density matrix formation    ....       0.006 sec  (  4.5%)
Population analysis         ....       0.000 sec  (  0.0%)
Initial guess               ....       0.003 sec  (  1.8%)
Orbital Transformation      ....       0.000 sec  (  0.0%)
Orbital Orthonormalization  ....       0.000 sec  (  0.0%)
DIIS solution               ....       0.021 sec  ( 14.9%)
SOSCF solution              ....       0.006 sec  (  4.4%)

-------------------------   --------------------
FINAL SINGLE POINT ENERGY        -2.019744262602
-------------------------   --------------------


                            ***************************************
                            *     ORCA property calculations      *
                            ***************************************

                                    ---------------------
                                    Active property flags
                                    ---------------------
   (+) Dipole Moment


------------------------------------------------------------------------------
                       ORCA ELECTRIC PROPERTIES CALCULATION
------------------------------------------------------------------------------

Dipole Moment Calculation                       ... on
Quadrupole Moment Calculation                   ... off
Polarizability Calculation                      ... off
GBWName                                         ... /Users/mattyjones/GoogleDrive/Boise/Code/MorphCT/tests/output_EZ/donor_polymer/chromophores/input_orca/pair/00006-00007.gbw
Electron density file                           ... /Users/mattyjones/GoogleDrive/Boise/Code/MorphCT/tests/output_EZ/donor_polymer/chromophores/input_orca/pair/00006-00007.scfp.tmp

-------------
DIPOLE MOMENT
-------------
                                X             Y             Z
Electronic contribution:     22.70909      26.86812      87.48678
Nuclear contribution   :    -12.10340     -14.02907     -47.33808
                        -----------------------------------------
Total Dipole Moment    :     10.60569      12.83905      40.14871
                        -----------------------------------------
Magnitude (a.u.)       :     43.46539
Magnitude (Debye)      :    110.48025


Timings for individual modules:

Sum of individual times         ...        0.222 sec (=   0.004 min)
STO integral calculation        ...        0.044 sec (=   0.001 min)  20.0 %
SCF iterations                  ...        0.178 sec (=   0.003 min)  80.0 %
                             ****ORCA TERMINATED NORMALLY****
TOTAL RUN TIME: 0 days 0 hours 0 minutes 0 seconds 541 msec

