
                                 *****************
                                 * O   R   C   A *
                                 *****************

           --- An Ab Initio, DFT and Semiempirical electronic structure package ---

                  #######################################################
                  #                        -***-                        #
                  #  Department of molecular theory and spectroscopy    #
                  #              Directorship: Frank Neese              #
                  # Max Planck Institute for Chemical Energy Conversion #
                  #                  D-45470 Muelheim/Ruhr              #
                  #                       Germany                       #
                  #                                                     #
                  #                  All rights reserved                #
                  #                        -***-                        #
                  #######################################################


                         Program Version 3.0.3 - RELEASE   -


 With contributions from (in alphabetic order):
   Ute Becker             : Parallelization
   Dmytro Bykov           : SCF Hessian
   Dmitry Ganyushin       : Spin-Orbit,Spin-Spin,Magnetic field MRCI
   Andreas Hansen         : Spin unrestricted coupled pair/coupled cluster methods
   Dimitrios Liakos       : Extrapolation schemes; parallel MDCI
   Robert Izsak           : Overlap fitted RIJCOSX, COSX-SCS-MP3
   Christian Kollmar      : KDIIS, OOCD, Brueckner-CCSD(T), CCSD density
   Simone Kossmann        : Meta GGA functionals, TD-DFT gradient, OOMP2, MP2 Hessian
   Taras Petrenko         : DFT Hessian,TD-DFT gradient, ASA and ECA modules, normal mode analysis, Resonance Raman, ABS, FL, XAS/XES, NRVS
   Christoph Reimann      : Effective Core Potentials
   Michael Roemelt        : Restricted open shell CIS
   Christoph Riplinger    : Improved optimizer, TS searches, QM/MM, DLPNO-CCSD
   Barbara Sandhoefer     : DKH picture change effects
   Igor Schapiro          : Molecular dynamics
   Kantharuban Sivalingam : CASSCF convergence, NEVPT2
   Boris Wezisla          : Elementary symmetry handling
   Frank Wennmohs         : Technical directorship


 We gratefully acknowledge several colleagues who have allowed us to
 interface, adapt or use parts of their codes:
   Stefan Grimme, W. Hujo, H. Kruse, T. Risthaus : VdW corrections, initial TS optimization,
                                                   DFT functionals, gCP
   Ed Valeev                                     : LibInt (2-el integral package), F12 methods
   Garnet Chan, S. Sharma, R. Olivares           : DMRG
   Ulf Ekstrom                                   : XCFun DFT Library
   Mihaly Kallay                                 : mrcc  (arbitrary order and MRCC methods)
   Andreas Klamt, Michael Diedenhofen            : otool_cosmo (COSMO solvation model)
   Frank Weinhold                                : gennbo (NPA and NBO analysis)
   Christopher J. Cramer and Donald G. Truhlar   : smd solvation model


 Your calculation uses the libint2 library for the computation of 2-el integrals
 For citations please refer to: http://libint.valeyev.net

 This ORCA versions uses:
   CBLAS   interface :  Fast vector & matrix operations
   LAPACKE interface :  Fast linear algebra routines
   SCALAPACK package :  Parallel linear algebra routines


leaving
================================================================================
                                        WARNINGS
                       Please study these warnings very carefully!
================================================================================
Now building the actual basis set

WARNING: Direct SCF is incompatible with Method<>HF and Method<>DFT
  ===> : conventional SCF is chosen

WARNING: The NDO methods need Guess=HUECKEL or Guess=HCORE or Guess=MOREAD
  ===> : Guess is set to Hueckel

WARNING: The NDO methods need %rel::SOCType==1
  ===> : %rel::SOCType is set to 1

WARNING: The NDO methods cannot have frozencore=1
  ===> : %method FrozenCore=0 end


INFO   : the flag for use of LIBINT has been found!

================================================================================
                                       INPUT FILE
================================================================================
NAME = /Users/mattyjones/GoogleDrive/Boise/Code/MorphCT/tests/output_EZ/donor_polymer/chromophores/input_orca/pair/00000-00012.inp
|  1> # ================================================================
|  2> # Orca input file made by Matty Jones
|  3> # ================================================================
|  4> ! ZINDO/S 
|  5> ! NOPOP
|  6> ! NOMOPRINT
|  7> * xyz 0   1
|  8>  C  -11.56110  17.21958  26.42724
|  9>  C  -11.22689  16.05600  25.73279
| 10>  C  -9.94540  15.52081  26.07286
| 11>  C  -9.26429  16.26556  27.04071
| 12>  S  -10.26931  17.52925  27.41945
| 13>  H  -11.83535  15.79102  24.80535
| 14>  C  -9.56297  14.17556  25.26807
| 15>  C  -10.22296  14.26575  23.66531
| 16>  C  -11.82698  13.62207  23.73308
| 17>  H  -11.59425  12.47856  23.62179
| 18>  H  -12.17828  13.75907  24.83109
| 19>  H  -10.24533  15.34607  23.29199
| 20>  H  -9.58991  13.61303  22.96838
| 21>  H  -9.98552  13.23658  25.79321
| 22>  H  -8.41291  14.07189  25.16243
| 23>  C  -13.16438  13.83522  22.79715
| 24>  C  -13.44672  15.00949  21.60396
| 25>  C  -14.40702  16.32050  22.06305
| 26>  H  -15.45480  16.20918  21.58147
| 27>  H  -13.91824  17.30198  21.69326
| 28>  H  -14.51283  16.34823  23.21400
| 29>  H  -13.97386  14.48763  20.72080
| 30>  H  -12.42680  15.41646  21.25948
| 31>  H  -13.34363  12.82399  22.25017
| 32>  H  -14.04847  13.97972  23.54338
| 33>  C  12.82620  -10.50696  -26.47208
| 34>  C  12.57581  -11.87879  -26.52927
| 35>  C  12.85971  -12.57531  -25.31333
| 36>  C  13.33668  -11.74930  -24.29082
| 37>  S  13.38141  -10.22213  -24.93594
| 38>  H  12.16480  -12.40633  -27.45594
| 39>  C  12.62689  -14.18393  -25.22531
| 40>  C  12.24256  -15.21309  -23.88558
| 41>  C  10.66373  -15.45890  -23.31172
| 42>  H  10.31732  -14.45035  -22.86074
| 43>  H  10.00122  -15.70434  -24.22540
| 44>  H  12.94391  -15.03106  -23.01128
| 45>  H  12.52736  -16.26706  -24.30516
| 46>  H  13.60135  -14.68268  -25.64090
| 47>  H  11.76571  -14.44371  -25.97273
| 48>  C  10.48175  -16.62254  -22.17702
| 49>  C  10.08912  -18.16304  -22.77209
| 50>  C  11.39384  -19.17155  -23.10535
| 51>  H  12.33686  -18.53355  -23.30855
| 52>  H  11.15155  -19.81386  -24.03745
| 53>  H  11.58201  -19.86499  -22.19739
| 54>  H  9.48828  -18.02373  -23.74576
| 55>  H  9.42657  -18.68671  -21.98701
| 56>  H  11.45975  -16.72677  -21.56933
| 57>  H  9.63070  -16.31742  -21.45428
| 58>  H  -12.45276  17.78593  26.33895
| 59>  H  -8.30620  16.06451  27.44722
| 60>  H  12.69011  -9.79689  -27.24724
| 61>  H  13.61202  -12.03865  -23.30896
| 62> *
| 63> 
| 64>                          ****END OF INPUT****
================================================================================

                       ****************************
                       * Single Point Calculation *
                       ****************************

---------------------------------
CARTESIAN COORDINATES (ANGSTROEM)
---------------------------------
  C    -11.561100   17.219580   26.427240
  C    -11.226890   16.056000   25.732790
  C     -9.945400   15.520810   26.072860
  C     -9.264290   16.265560   27.040710
  S    -10.269310   17.529250   27.419450
  H    -11.835350   15.791020   24.805350
  C     -9.562970   14.175560   25.268070
  C    -10.222960   14.265750   23.665310
  C    -11.826980   13.622070   23.733080
  H    -11.594250   12.478560   23.621790
  H    -12.178280   13.759070   24.831090
  H    -10.245330   15.346070   23.291990
  H     -9.589910   13.613030   22.968380
  H     -9.985520   13.236580   25.793210
  H     -8.412910   14.071890   25.162430
  C    -13.164380   13.835220   22.797150
  C    -13.446720   15.009490   21.603960
  C    -14.407020   16.320500   22.063050
  H    -15.454800   16.209180   21.581470
  H    -13.918240   17.301980   21.693260
  H    -14.512830   16.348230   23.214000
  H    -13.973860   14.487630   20.720800
  H    -12.426800   15.416460   21.259480
  H    -13.343630   12.823990   22.250170
  H    -14.048470   13.979720   23.543380
  C     12.826200  -10.506960  -26.472080
  C     12.575810  -11.878790  -26.529270
  C     12.859710  -12.575310  -25.313330
  C     13.336680  -11.749300  -24.290820
  S     13.381410  -10.222130  -24.935940
  H     12.164800  -12.406330  -27.455940
  C     12.626890  -14.183930  -25.225310
  C     12.242560  -15.213090  -23.885580
  C     10.663730  -15.458900  -23.311720
  H     10.317320  -14.450350  -22.860740
  H     10.001220  -15.704340  -24.225400
  H     12.943910  -15.031060  -23.011280
  H     12.527360  -16.267060  -24.305160
  H     13.601350  -14.682680  -25.640900
  H     11.765710  -14.443710  -25.972730
  C     10.481750  -16.622540  -22.177020
  C     10.089120  -18.163040  -22.772090
  C     11.393840  -19.171550  -23.105350
  H     12.336860  -18.533550  -23.308550
  H     11.151550  -19.813860  -24.037450
  H     11.582010  -19.864990  -22.197390
  H      9.488280  -18.023730  -23.745760
  H      9.426570  -18.686710  -21.987010
  H     11.459750  -16.726770  -21.569330
  H      9.630700  -16.317420  -21.454280
  H    -12.452760   17.785930   26.338950
  H     -8.306200   16.064510   27.447220
  H     12.690110   -9.796890  -27.247240
  H     13.612020  -12.038650  -23.308960

----------------------------
CARTESIAN COORDINATES (A.U.)
----------------------------
  NO LB      ZA    FRAG    MASS        X           Y           Z
   0 C     4.0000    0    12.011        -21.847312806876982         32.540290341147710         49.940246075409064
   1 C     4.0000    0    12.011        -21.215747435659161         30.341442806239620         48.627925761707445
   2 C     4.0000    0    12.011        -18.794082292300416         29.330080276626305         49.270564928070044
   3 C     4.0000    0    12.011        -17.506970925225314         30.737453814864157         51.099536366785728
   4 S     6.0000    0    32.060        -19.406183484338850         33.125481833039103         51.815251242747067
   5 H     1.0000    0     1.008        -22.365570199104887         29.840703175273163         46.875318156063521
   6 C     4.0000    0    12.011        -18.071394326904912         26.787926194968740         47.749732232751562
   7 C     4.0000    0    12.011        -19.318594678031602         26.958360594987099         44.720954774347938
   8 C     4.0000    0    12.011        -22.349753191363966         25.741981677104665         44.849021514443784
   9 H     1.0000    0     1.008        -21.909957228216474         23.581060945704373         44.638713892999682
  10 H     1.0000    0     1.008        -23.013613982210501         26.000874157451875         46.923959706750651
  11 H     1.0000    0     1.008        -19.360867851647416         28.999869531984903         44.015482214032453
  12 H     1.0000    0     1.008        -18.122303548952750         25.724898552854018         43.403947939834197
  13 H     1.0000    0     1.008        -18.869898104793336         25.013511149739362         48.742103014718964
  14 H     1.0000    0     1.008        -15.898095889327438         26.592018286665123         47.550101563964120
  15 C     4.0000    0    12.011        -24.877072922870244         26.144776802549977         43.080370133922862
  16 C     4.0000    0    12.011        -25.410618199521572         28.363825509829688         40.825567808189362
  17 C     4.0000    0    12.011        -27.225322205926151         30.841275368661787         41.693122179011276
  18 H     1.0000    0     1.008        -29.205339454526161         30.630911055433675         40.783067867437474
  19 H     1.0000    0     1.008        -26.301661866188123         32.696003774582820         40.994320351948531
  20 H     1.0000    0     1.008        -27.425274128156357         30.893677474355425         43.868102472847930
  21 H     1.0000    0     1.008        -26.406768433756824         27.377653029581541         39.156637275755472
  22 H     1.0000    0     1.008        -23.483248721012611         29.132887354551620         40.174594949576168
  23 H     1.0000    0     1.008        -25.215806332375628         24.233829044144791         42.046727733190615
  24 H     1.0000    0     1.008        -26.547760900608687         26.417842228901602         44.490540466838915
  25 C     4.0000    0    12.011         24.238005338900759        -19.855276900065235        -50.024981395254088
  26 C     4.0000    0    12.011         23.764836812228218        -22.447659902362425        -50.133054832853041
  27 C     4.0000    0    12.011         24.301330061648457        -23.763891949161255        -47.835261237572837
  28 C     4.0000    0    12.011         25.202672735744876        -22.202959265280963        -45.902997368377015
  29 S     6.0000    0    32.060         25.287200185715179        -19.317026205340444        -47.122097491892291
  30 H     1.0000    0     1.008         22.988140473925242        -23.444566027051245        -51.884207349373845
  31 C     4.0000    0    12.011         23.861364023148912        -26.803743202709658        -47.668927543265092
  32 C     4.0000    0    12.011         23.135085578098955        -28.748573750696053        -45.137204749866775
  33 C     4.0000    0    12.011         20.151529266080068        -29.213087331675236        -44.052766510654720
  34 H     1.0000    0     1.008         19.496909236028408        -27.307204039308960        -43.200537818778912
  35 H     1.0000    0     1.008         18.899566805095901        -29.676901713984869        -45.779371484695893
  36 H     1.0000    0     1.008         24.460445002124629        -28.404586902538369        -43.485017190979420
  37 H     1.0000    0     1.008         23.673279581039729        -30.740288404065037        -45.930096041137453
  38 H     1.0000    0     1.008         25.702826551609817        -27.746244112002881        -48.454278827261419
  39 H     1.0000    0     1.008         22.233969671138610        -27.294656257779721        -49.081346650280508
  40 C     4.0000    0    12.011         19.807636904229078        -31.412048250151365        -41.908494266494273
  41 C     4.0000    0    12.011         19.065673732267577        -34.323171359457049        -43.033013597006793
  42 C     4.0000    0    12.011         21.531237213717315        -36.228979062777974        -43.662783728397393
  43 H     1.0000    0     1.008         23.313286752527731        -35.023333789336220        -44.046776078810190
  44 H     1.0000    0     1.008         21.073375468729534        -37.442769055856928        -45.424197457825393
  45 H     1.0000    0     1.008         21.886826980337275        -37.539390753084319        -41.946987987842249
  46 H     1.0000    0     1.008         17.930250681962335        -34.059913611740484        -44.872983241821899
  47 H     1.0000    0     1.008         17.813635682238054        -35.312764244007596        -41.549427403787902
  48 H     1.0000    0     1.008         21.655789063204065        -31.609014405089972        -40.760126592171673
  49 H     1.0000    0     1.008         18.199385477955396        -30.835455012169309        -40.542713600464033
  50 H     1.0000    0     1.008        -23.532306011449204         33.610536737094009         49.773402155045154
  51 H     1.0000    0     1.008        -15.696443213576702         30.357524375639283         51.867728937486056
  52 H     1.0000    0     1.008         23.980832509335418        -18.513439064151772        -51.489821505224491
  53 H     1.0000    0     1.008         25.722989929458755        -22.749751522131078        -44.047550866525093

--------------------------------
INTERNAL COORDINATES (ANGSTROEM)
--------------------------------
 C      0   0   0   0.000000     0.000     0.000
 C      1   0   0   1.395663     0.000     0.000
 C      2   1   0   1.429788   114.101     0.000
 C      3   2   1   1.398319   113.693     0.000
 S      1   2   3   1.658040   105.480     0.000
 H      2   1   3   1.140431   118.073   195.317
 C      3   2   1   1.613579   113.945   179.989
 C      7   3   2   1.735673   109.094    34.394
 C      8   7   3   1.729681   107.284   271.668
 H      9   8   7   1.172247   100.089   275.528
 H      9   8   7   1.160951   105.888    24.826
 H      8   7   3   1.143223   110.983    32.184
 H      8   7   3   1.145647   108.785   153.989
 H      7   3   2   1.155856   111.348   274.262
 H      7   3   2   1.159545   110.796   152.325
 C      9   8   7   1.646219   133.073   156.109
 C     16   9   8   1.697742   128.626   347.434
 C     17  16   9   1.688694   116.134   259.070
 H     18  17  16   1.158514   109.069   254.119
 H     18  17  16   1.157132   109.354   134.629
 H     18  17  16   1.156136   109.956    14.169
 H     17  16   9   1.153337   107.531   138.746
 H     17  16   9   1.150881   107.913    20.565
 H     16   9   8   1.163574   106.253   111.473
 H     16   9   8   1.165914   105.557   224.841
 C     13   8   7  59.402146   161.115   192.393
 C     26  13   8   1.395666   111.439   242.317
 C     27  26  13   1.429773   114.102   313.452
 C     28  27  26   1.398327   113.693     0.000
 S     26  13   8   1.658045    44.398   151.813
 H     27  26  13   1.142779   123.470   132.548
 C     28  27  26   1.627763   119.935   180.365
 C     32  28  27   1.732558   131.343   208.213
 C     33  32  28   1.697776   123.618    83.446
 H     34  33  32   1.157824   106.485   292.609
 H     34  33  32   1.154977   107.266    48.918
 H     33  32  28   1.135529   111.293   309.507
 H     33  32  28   1.169620   101.763   197.331
 H     32  28  27   1.170914   106.422    85.157
 H     32  28  27   1.169510   106.875   331.151
 C     34  33  32   1.635457   116.168   171.754
 C     41  34  33   1.697471   115.355   267.233
 C     42  41  34   1.682394   115.727    91.190
 H     43  42  41   1.156556   109.661   335.780
 H     43  42  41   1.157617   109.256   215.652
 H     43  42  41   1.157868   109.251    95.932
 H     42  41  34   1.152584   107.881   330.104
 H     42  41  34   1.153063   107.841   212.155
 H     41  34  33   1.156129   109.554    28.458
 H     41  34  33   1.157470   109.116   147.127
 H      1   2   3   1.060002   127.260   179.999
 H      4   3   2   1.060004   127.206   179.999
 H     26  13   8   1.059997   106.750    25.205
 H     29  28  27   1.059993   127.207   180.001

---------------------------
INTERNAL COORDINATES (A.U.)
---------------------------
 C      0   0   0   0.000000     0.000     0.000
 C      1   0   0   2.637421     0.000     0.000
 C      2   1   0   2.701907   114.101     0.000
 C      3   2   1   2.642441   113.693     0.000
 S      1   2   3   3.133242   105.480     0.000
 H      2   1   3   2.155102   118.073   195.317
 C      3   2   1   3.049222   113.945   179.989
 C      7   3   2   3.279947   109.094    34.394
 C      8   7   3   3.268624   107.284   271.668
 H      9   8   7   2.215226   100.089   275.528
 H      9   8   7   2.193879   105.888    24.826
 H      8   7   3   2.160379   110.983    32.184
 H      8   7   3   2.164959   108.785   153.989
 H      7   3   2   2.184252   111.348   274.262
 H      7   3   2   2.191223   110.796   152.325
 C      9   8   7   3.110903   133.073   156.109
 C     16   9   8   3.208268   128.626   347.434
 C     17  16   9   3.191169   116.134   259.070
 H     18  17  16   2.189274   109.069   254.119
 H     18  17  16   2.186662   109.354   134.629
 H     18  17  16   2.184781   109.956    14.169
 H     17  16   9   2.179491   107.531   138.746
 H     17  16   9   2.174851   107.913    20.565
 H     16   9   8   2.198836   106.253   111.473
 H     16   9   8   2.203257   105.557   224.841
 C     13   8   7 112.253788   161.115   192.393
 C     26  13   8   2.637426   111.439   242.317
 C     27  26  13   2.701878   114.102   313.452
 C     28  27  26   2.642456   113.693     0.000
 S     26  13   8   3.133250    44.398   151.813
 H     27  26  13   2.159540   123.470   132.548
 C     28  27  26   3.076025   119.935   180.365
 C     32  28  27   3.274060   131.343   208.213
 C     33  32  28   3.208331   123.618    83.446
 H     34  33  32   2.187970   106.485   292.609
 H     34  33  32   2.182590   107.266    48.918
 H     33  32  28   2.145840   111.293   309.507
 H     33  32  28   2.210262   101.763   197.331
 H     32  28  27   2.212706   106.422    85.157
 H     32  28  27   2.210053   106.875   331.151
 C     34  33  32   3.090565   116.168   171.754
 C     41  34  33   3.207755   115.355   267.233
 C     42  41  34   3.179264   115.727    91.190
 H     43  42  41   2.185573   109.661   335.780
 H     43  42  41   2.187579   109.256   215.652
 H     43  42  41   2.188053   109.251    95.932
 H     42  41  34   2.178068   107.881   330.104
 H     42  41  34   2.178973   107.841   212.155
 H     41  34  33   2.184768   109.554    28.458
 H     41  34  33   2.187302   109.116   147.127
 H      1   2   3   2.003114   127.260   179.999
 H      4   3   2   2.003117   127.206   179.999
 H     26  13   8   2.003103   106.750    25.205
 H     29  28  27   2.003096   127.207   180.001

----------------------------
SLATER BASIS SET DIM= 120
----------------------------
  0 C     2 shells
 l=0 nsto= 1
    2       1.625000000000        1.000000000000
 l=1 nsto= 1
    2       1.625000000000        1.000000000000
  1 C     2 shells
 l=0 nsto= 1
    2       1.625000000000        1.000000000000
 l=1 nsto= 1
    2       1.625000000000        1.000000000000
  2 C     2 shells
 l=0 nsto= 1
    2       1.625000000000        1.000000000000
 l=1 nsto= 1
    2       1.625000000000        1.000000000000
  3 C     2 shells
 l=0 nsto= 1
    2       1.625000000000        1.000000000000
 l=1 nsto= 1
    2       1.625000000000        1.000000000000
  4 S     2 shells
 l=0 nsto= 1
    3       1.925000000000        1.000000000000
 l=1 nsto= 1
    3       1.925000000000        1.000000000000
  5 H     1 shells
 l=0 nsto= 1
    1       1.200000000000        1.000000000000
  6 C     2 shells
 l=0 nsto= 1
    2       1.625000000000        1.000000000000
 l=1 nsto= 1
    2       1.625000000000        1.000000000000
  7 C     2 shells
 l=0 nsto= 1
    2       1.625000000000        1.000000000000
 l=1 nsto= 1
    2       1.625000000000        1.000000000000
  8 C     2 shells
 l=0 nsto= 1
    2       1.625000000000        1.000000000000
 l=1 nsto= 1
    2       1.625000000000        1.000000000000
  9 H     1 shells
 l=0 nsto= 1
    1       1.200000000000        1.000000000000
 10 H     1 shells
 l=0 nsto= 1
    1       1.200000000000        1.000000000000
 11 H     1 shells
 l=0 nsto= 1
    1       1.200000000000        1.000000000000
 12 H     1 shells
 l=0 nsto= 1
    1       1.200000000000        1.000000000000
 13 H     1 shells
 l=0 nsto= 1
    1       1.200000000000        1.000000000000
 14 H     1 shells
 l=0 nsto= 1
    1       1.200000000000        1.000000000000
 15 C     2 shells
 l=0 nsto= 1
    2       1.625000000000        1.000000000000
 l=1 nsto= 1
    2       1.625000000000        1.000000000000
 16 C     2 shells
 l=0 nsto= 1
    2       1.625000000000        1.000000000000
 l=1 nsto= 1
    2       1.625000000000        1.000000000000
 17 C     2 shells
 l=0 nsto= 1
    2       1.625000000000        1.000000000000
 l=1 nsto= 1
    2       1.625000000000        1.000000000000
 18 H     1 shells
 l=0 nsto= 1
    1       1.200000000000        1.000000000000
 19 H     1 shells
 l=0 nsto= 1
    1       1.200000000000        1.000000000000
 20 H     1 shells
 l=0 nsto= 1
    1       1.200000000000        1.000000000000
 21 H     1 shells
 l=0 nsto= 1
    1       1.200000000000        1.000000000000
 22 H     1 shells
 l=0 nsto= 1
    1       1.200000000000        1.000000000000
 23 H     1 shells
 l=0 nsto= 1
    1       1.200000000000        1.000000000000
 24 H     1 shells
 l=0 nsto= 1
    1       1.200000000000        1.000000000000
 25 C     2 shells
 l=0 nsto= 1
    2       1.625000000000        1.000000000000
 l=1 nsto= 1
    2       1.625000000000        1.000000000000
 26 C     2 shells
 l=0 nsto= 1
    2       1.625000000000        1.000000000000
 l=1 nsto= 1
    2       1.625000000000        1.000000000000
 27 C     2 shells
 l=0 nsto= 1
    2       1.625000000000        1.000000000000
 l=1 nsto= 1
    2       1.625000000000        1.000000000000
 28 C     2 shells
 l=0 nsto= 1
    2       1.625000000000        1.000000000000
 l=1 nsto= 1
    2       1.625000000000        1.000000000000
 29 S     2 shells
 l=0 nsto= 1
    3       1.925000000000        1.000000000000
 l=1 nsto= 1
    3       1.925000000000        1.000000000000
 30 H     1 shells
 l=0 nsto= 1
    1       1.200000000000        1.000000000000
 31 C     2 shells
 l=0 nsto= 1
    2       1.625000000000        1.000000000000
 l=1 nsto= 1
    2       1.625000000000        1.000000000000
 32 C     2 shells
 l=0 nsto= 1
    2       1.625000000000        1.000000000000
 l=1 nsto= 1
    2       1.625000000000        1.000000000000
 33 C     2 shells
 l=0 nsto= 1
    2       1.625000000000        1.000000000000
 l=1 nsto= 1
    2       1.625000000000        1.000000000000
 34 H     1 shells
 l=0 nsto= 1
    1       1.200000000000        1.000000000000
 35 H     1 shells
 l=0 nsto= 1
    1       1.200000000000        1.000000000000
 36 H     1 shells
 l=0 nsto= 1
    1       1.200000000000        1.000000000000
 37 H     1 shells
 l=0 nsto= 1
    1       1.200000000000        1.000000000000
 38 H     1 shells
 l=0 nsto= 1
    1       1.200000000000        1.000000000000
 39 H     1 shells
 l=0 nsto= 1
    1       1.200000000000        1.000000000000
 40 C     2 shells
 l=0 nsto= 1
    2       1.625000000000        1.000000000000
 l=1 nsto= 1
    2       1.625000000000        1.000000000000
 41 C     2 shells
 l=0 nsto= 1
    2       1.625000000000        1.000000000000
 l=1 nsto= 1
    2       1.625000000000        1.000000000000
 42 C     2 shells
 l=0 nsto= 1
    2       1.625000000000        1.000000000000
 l=1 nsto= 1
    2       1.625000000000        1.000000000000
 43 H     1 shells
 l=0 nsto= 1
    1       1.200000000000        1.000000000000
 44 H     1 shells
 l=0 nsto= 1
    1       1.200000000000        1.000000000000
 45 H     1 shells
 l=0 nsto= 1
    1       1.200000000000        1.000000000000
 46 H     1 shells
 l=0 nsto= 1
    1       1.200000000000        1.000000000000
 47 H     1 shells
 l=0 nsto= 1
    1       1.200000000000        1.000000000000
 48 H     1 shells
 l=0 nsto= 1
    1       1.200000000000        1.000000000000
 49 H     1 shells
 l=0 nsto= 1
    1       1.200000000000        1.000000000000
 50 H     1 shells
 l=0 nsto= 1
    1       1.200000000000        1.000000000000
 51 H     1 shells
 l=0 nsto= 1
    1       1.200000000000        1.000000000000
 52 H     1 shells
 l=0 nsto= 1
    1       1.200000000000        1.000000000000
 53 H     1 shells
 l=0 nsto= 1
    1       1.200000000000        1.000000000000
------------------------------------------------------------------------------
                           ORCA NDO INTEGRAL CALCULATION
------------------------------------------------------------------------------

--------------
NDO PARAMETERS
--------------

Gamma integral treatment              ... Mataga-Nishimoto
Nuclear repulsuion treatment          ... Direct (ZA*ZB/RAB)
Interaction factors:
s-s (sigma) =    1.0000
s-p (sigma) =    1.0000
s-d (sigma) =    1.0000
p-p (sigma) =    1.2670  p-p(pi) =    0.5850
p-d (sigma) =    1.0000  p-d(pi) =    1.0000
d-d (sigma) =    1.0000  d-d(pi) =    1.0000 d-d (delta) =    1.0000

fGamma parameter for Mataga-Nishimoto gamma integrals:    1.2000

--------------------------
Parameters for Element H :
--------------------------
 One-electron parameters (in eV)
  U(s)  =   -13.060000 Beta(s) =    12.000000 Neff(s) =     1.000000
 One-center electron repulsion parameters (in eV)
  G(s,s)=    12.850000
--------------------------
Parameters for Element C :
--------------------------
 One-electron parameters (in eV)
  U(s)  =   -50.870766 Beta(s) =    17.000000 Neff(s) =     2.000000
  U(p)  =   -41.599980 Beta(p) =    17.000000 Neff(p) =     2.000000 
 One-center electron repulsion parameters (in eV)
  G(s,s)=    11.110000
  G(s,p)=    11.110000 G(p,p)  =    11.110000
 Slater-Condon parameters (in eV)
 F2(p,p)=     4.5098 G1(s,p)=    6.8977
--------------------------
Parameters for Element S :
--------------------------
 One-electron parameters (in eV)
  U(s)  =   -69.509597 Beta(s) =    15.000000 Neff(s) =     2.000000
  U(p)  =   -60.725746 Beta(p) =    15.000000 Neff(p) =     4.000000 
 One-center electron repulsion parameters (in eV)
  G(s,s)=    10.090000
  G(s,p)=    10.090000 G(p,p)  =    10.090000
 Slater-Condon parameters (in eV)
 F2(p,p)=     4.5377 G1(s,p)=    3.0756

 Number of atoms                    ....   54
 Number of basis functions          ....  120

 Overlap integrals                  .... done
 One electron matrix                .... done
 Nuclear repulsion                  .... done
 Integral list                      .... done
 Electron-electron repulsion        .... done
-------------------------------------------------------------------------------
                                 ORCA SCF
-------------------------------------------------------------------------------

------------
SCF SETTINGS
------------
Hamiltonian:
 ZDO-Hamiltonian        Method          .... INDO


General Settings:
 Integral files         IntName         .... /Users/mattyjones/GoogleDrive/Boise/Code/MorphCT/tests/output_EZ/donor_polymer/chromophores/input_orca/pair/00000-00012
 Hartree-Fock type      HFTyp           .... RHF
 Total Charge           Charge          ....    0
 Multiplicity           Mult            ....    1
 Number of Electrons    NEL             ....  124
 Basis Dimension        Dim             ....  120
 Nuclear Repulsion      ENuc            ....    628.1464150926 Eh

Convergence Acceleration:
 DIIS                   CNVDIIS         .... on
   Start iteration      DIISMaxIt       ....    12
   Startup error        DIISStart       ....  0.200000
   # of expansion vecs  DIISMaxEq       ....     5
   Bias factor          DIISBfac        ....   1.050
   Max. coefficient     DIISMaxC        ....  10.000
 Newton-Raphson         CNVNR           .... off
 SOSCF                  CNVSOSCF        .... on
   Start iteration      SOSCFMaxIt      ....   150
   Startup grad/error   SOSCFStart      ....  0.003300
 Level Shifting         CNVShift        .... on
   Level shift para.    LevelShift      ....    0.2500
   Turn off err/grad.   ShiftErr        ....    0.0010
 Zerner damping         CNVZerner       .... off
 Static damping         CNVDamp         .... on
   Fraction old density DampFac         ....    0.7000
   Max. Damping (<1)    DampMax         ....    0.9800
   Min. Damping (>=0)   DampMin         ....    0.0000
   Turn off err/grad.   DampErr         ....    0.1000
 Fernandez-Rico         CNVRico         .... off

SCF Procedure:
 Maximum # iterations   MaxIter         ....   125
 SCF integral mode      SCFMode         .... Conventional
 Integral Buffer length BufferLength    .... 1048576
 Integral index format  IndFormat       ....     0
 Integral value format  ValFormat       ....     0
 Integral Storage       Thresh          ....  1.000e-08 Eh

Convergence Tolerance:
 Convergence Check Mode ConvCheckMode   .... Total+1el-Energy
 Energy Change          TolE            ....  1.000e-06 Eh
 1-El. energy change                    ....  1.000e-03 Eh
 Orbital Gradient       TolG            ....  5.000e-05
 Orbital Rotation angle TolX            ....  5.000e-05
 DIIS Error             TolErr          ....  1.000e-06


Diagonalization of the overlap matrix:
Smallest eigenvalue                        ... 1.695e-01
Time for diagonalization                   ...    0.004 sec
Threshold for overlap eigenvalues          ... 1.000e-08
Number of eigenvalues below threshold      ... 0
Time for construction of square roots      ...    0.001 sec
Total time needed                          ...    0.005 sec

-------------------------------
INITIAL GUESS: EXTENDED HUECKEL
-------------------------------
EHT matrix was read from disk
EHT matrix was diagonalized
Initial density was built
                      ------------------
                      INITIAL GUESS DONE
                      ------------------

 InCore treatment chosen:
   Memory dedicated               ...    1024 MB
   Memory needed                  ...      0 MB
   Number of tiny    integrals    ...       0
   Number of small   integrals    ...       0
   Number of regular integrals    ...    7392

--------------
SCF ITERATIONS
--------------
ITER       Energy         Delta-E        Max-DP      RMS-DP      [F,P]     Damp
  0    -17.5766732897   0.000000000000 0.04366723  0.00144275  0.1037655 0.7000
  1    -17.6183881853  -0.041714895601 0.04285708  0.00136023  0.0711562 0.7000
                               ***Turning on DIIS***
  2    -17.6492907057  -0.030902520391 0.11372540  0.00349639  0.0433141 0.0000
  3    -17.7300393728  -0.080748667073 0.02028393  0.00073275  0.0200772 0.0000
  4    -17.7150499897   0.014989383029 0.01503852  0.00050083  0.0083413 0.0000
  5    -17.7323863710  -0.017336381247 0.01059651  0.00033769  0.0049567 0.0000
  6    -17.7347742605  -0.002387889551 0.00773645  0.00023894  0.0028384 0.0000
                      *** Initiating the SOSCF procedure ***
                           *** Shutting down DIIS ***
                      *** Re-Reading the Fockian *** 
                      *** Removing any level shift *** 
ITER      Energy       Delta-E        Grad      Rot      Max-DP    RMS-DP
  7    -17.73065459   0.0041196682  0.003031  0.003031  0.004636  0.000135
  8    -17.72869801   0.0019565793  0.000818  0.002263  0.002308  0.000063
  9    -17.72871275  -0.0000147360  0.000365  0.002237  0.002579  0.000066
 10    -17.72871816  -0.0000054121  0.000029  0.000083  0.000124  0.000004
                 **** Energy Check signals convergence ****
              ***Rediagonalizing the Fockian in SOSCF/NRSCF***

               *****************************************************
               *                     SUCCESS                       *
               *           SCF CONVERGED AFTER  11 CYCLES          *
               *****************************************************


----------------
TOTAL SCF ENERGY
----------------

Total Energy       :          -17.72871821 Eh            -482.42295 eV

Components:
Nuclear Repulsion  :          628.14641509 Eh           17092.73293 eV
Electronic Energy  :         -645.87513330 Eh          -17575.15588 eV

One Electron Energy:        -1201.44437659 Eh          -32692.96357 eV
Two Electron Energy:          555.56924328 Eh           15117.80768 eV


---------------
SCF CONVERGENCE
---------------

  Last Energy change         ...   -4.9122e-08  Tolerance :   1.0000e-06
  Last MAX-Density change    ...    5.0477e-05  Tolerance :   1.0000e-05
  Last RMS-Density change    ...    1.3699e-06  Tolerance :   1.0000e-06
  Last Orbital Gradient      ...    1.1453e-05  Tolerance :   5.0000e-05
  Last Orbital Rotation      ...    2.3640e-05  Tolerance :   5.0000e-05

             **** THE GBW FILE WAS UPDATED (/Users/mattyjones/GoogleDrive/Boise/Code/MorphCT/tests/output_EZ/donor_polymer/chromophores/input_orca/pair/00000-00012.gbw) ****
             **** DENSITY FILE WAS UPDATED (/Users/mattyjones/GoogleDrive/Boise/Code/MorphCT/tests/output_EZ/donor_polymer/chromophores/input_orca/pair/00000-00012.scfp.tmp) ****
             **** ENERGY FILE WAS UPDATED (/Users/mattyjones/GoogleDrive/Boise/Code/MorphCT/tests/output_EZ/donor_polymer/chromophores/input_orca/pair/00000-00012.en.tmp) ****
----------------
ORBITAL ENERGIES
----------------

  NO   OCC          E(Eh)            E(eV) 
   0   2.0000      -1.565898       -42.6102 
   1   2.0000      -1.554656       -42.3043 
   2   2.0000      -1.397491       -38.0277 
   3   2.0000      -1.384726       -37.6803 
   4   2.0000      -1.302076       -35.4313 
   5   2.0000      -1.275810       -34.7166 
   6   2.0000      -1.179178       -32.0871 
   7   2.0000      -1.176553       -32.0156 
   8   2.0000      -1.120595       -30.4929 
   9   2.0000      -1.111848       -30.2549 
  10   2.0000      -1.061117       -28.8745 
  11   2.0000      -1.022901       -27.8346 
  12   2.0000      -0.968086       -26.3430 
  13   2.0000      -0.960871       -26.1466 
  14   2.0000      -0.926693       -25.2166 
  15   2.0000      -0.877672       -23.8827 
  16   2.0000      -0.863884       -23.5075 
  17   2.0000      -0.843450       -22.9514 
  18   2.0000      -0.839805       -22.8523 
  19   2.0000      -0.825765       -22.4702 
  20   2.0000      -0.785633       -21.3782 
  21   2.0000      -0.776277       -21.1236 
  22   2.0000      -0.746684       -20.3183 
  23   2.0000      -0.713343       -19.4111 
  24   2.0000      -0.706444       -19.2233 
  25   2.0000      -0.684585       -18.6285 
  26   2.0000      -0.674375       -18.3507 
  27   2.0000      -0.667593       -18.1661 
  28   2.0000      -0.639747       -17.4084 
  29   2.0000      -0.626247       -17.0411 
  30   2.0000      -0.613055       -16.6821 
  31   2.0000      -0.601597       -16.3703 
  32   2.0000      -0.596526       -16.2323 
  33   2.0000      -0.589843       -16.0504 
  34   2.0000      -0.575814       -15.6687 
  35   2.0000      -0.575318       -15.6552 
  36   2.0000      -0.573912       -15.6169 
  37   2.0000      -0.557424       -15.1683 
  38   2.0000      -0.553250       -15.0547 
  39   2.0000      -0.550309       -14.9747 
  40   2.0000      -0.542981       -14.7753 
  41   2.0000      -0.537749       -14.6329 
  42   2.0000      -0.528295       -14.3756 
  43   2.0000      -0.524068       -14.2606 
  44   2.0000      -0.505026       -13.7425 
  45   2.0000      -0.504991       -13.7415 
  46   2.0000      -0.496488       -13.5101 
  47   2.0000      -0.490378       -13.3439 
  48   2.0000      -0.489419       -13.3178 
  49   2.0000      -0.487256       -13.2589 
  50   2.0000      -0.478061       -13.0087 
  51   2.0000      -0.474681       -12.9167 
  52   2.0000      -0.472082       -12.8460 
  53   2.0000      -0.463044       -12.6001 
  54   2.0000      -0.456743       -12.4286 
  55   2.0000      -0.446238       -12.1427 
  56   2.0000      -0.435212       -11.8427 
  57   2.0000      -0.433520       -11.7967 
  58   2.0000      -0.357471        -9.7273 
  59   2.0000      -0.352448        -9.5906 
  60   2.0000      -0.305571        -8.3150 
  61   2.0000      -0.304182        -8.2772 
  62   0.0000       0.007247         0.1972 
  63   0.0000       0.008821         0.2400 
  64   0.0000       0.059751         1.6259 
  65   0.0000       0.065372         1.7789 
  66   0.0000       0.071001         1.9320 
  67   0.0000       0.073844         2.0094 
  68   0.0000       0.085711         2.3323 
  69   0.0000       0.086492         2.3536 
  70   0.0000       0.099972         2.7204 
  71   0.0000       0.103325         2.8116 
  72   0.0000       0.106754         2.9049 
  73   0.0000       0.108794         2.9604 
  74   0.0000       0.122471         3.3326 
  75   0.0000       0.123474         3.3599 
  76   0.0000       0.139290         3.7903 
  77   0.0000       0.141571         3.8523 
  78   0.0000       0.158426         4.3110 
  79   0.0000       0.159741         4.3468 
  80   0.0000       0.164626         4.4797 
  81   0.0000       0.165351         4.4994 
  82   0.0000       0.170607         4.6424 
  83   0.0000       0.176904         4.8138 
  84   0.0000       0.203053         5.5253 
  85   0.0000       0.204490         5.5645 
  86   0.0000       0.228489         6.2175 
  87   0.0000       0.228637         6.2215 
  88   0.0000       0.233714         6.3597 
  89   0.0000       0.234350         6.3770 
  90   0.0000       0.235120         6.3979 
  91   0.0000       0.236320         6.4306 
  92   0.0000       0.236586         6.4378 
  93   0.0000       0.237844         6.4721 
  94   0.0000       0.238598         6.4926 
  95   0.0000       0.239733         6.5235 
  96   0.0000       0.241805         6.5799 
  97   0.0000       0.242401         6.5961 
  98   0.0000       0.243247         6.6191 
  99   0.0000       0.244315         6.6481 
 100   0.0000       0.245932         6.6922 
 101   0.0000       0.254187         6.9168 
 102   0.0000       0.255740         6.9590 
 103   0.0000       0.257296         7.0014 
 104   0.0000       0.266310         7.2467 
 105   0.0000       0.267612         7.2821 
 106   0.0000       0.270079         7.3492 
 107   0.0000       0.277635         7.5548 
 108   0.0000       0.294469         8.0129 
 109   0.0000       0.304420         8.2837 
 110   0.0000       0.310069         8.4374 
 111   0.0000       0.311136         8.4664 
 112   0.0000       0.338170         9.2021 
 113   0.0000       0.339013         9.2250 
 114   0.0000       0.353259         9.6127 
 115   0.0000       0.365688         9.9509 
 116   0.0000       0.413979        11.2650 
 117   0.0000       0.420416        11.4401 
 118   0.0000       0.425006        11.5650 
 119   0.0000       0.430181        11.7058 
-------
TIMINGS
-------

Total SCF time: 0 days 0 hours 0 min 0 sec 

Total time                  ....       0.156 sec
Sum of individual times     ....       0.107 sec  ( 68.5%)

Fock matrix formation       ....       0.056 sec  ( 36.2%)
Diagonalization             ....       0.023 sec  ( 14.8%)
Density matrix formation    ....       0.005 sec  (  3.2%)
Population analysis         ....       0.000 sec  (  0.0%)
Initial guess               ....       0.003 sec  (  2.2%)
Orbital Transformation      ....       0.000 sec  (  0.0%)
Orbital Orthonormalization  ....       0.000 sec  (  0.0%)
DIIS solution               ....       0.013 sec  (  8.4%)
SOSCF solution              ....       0.006 sec  (  3.7%)

-------------------------   --------------------
FINAL SINGLE POINT ENERGY       -17.728718210183
-------------------------   --------------------


                            ***************************************
                            *     ORCA property calculations      *
                            ***************************************

                                    ---------------------
                                    Active property flags
                                    ---------------------
   (+) Dipole Moment


------------------------------------------------------------------------------
                       ORCA ELECTRIC PROPERTIES CALCULATION
------------------------------------------------------------------------------

Dipole Moment Calculation                       ... on
Quadrupole Moment Calculation                   ... off
Polarizability Calculation                      ... off
GBWName                                         ... /Users/mattyjones/GoogleDrive/Boise/Code/MorphCT/tests/output_EZ/donor_polymer/chromophores/input_orca/pair/00000-00012.gbw
Electron density file                           ... /Users/mattyjones/GoogleDrive/Boise/Code/MorphCT/tests/output_EZ/donor_polymer/chromophores/input_orca/pair/00000-00012.scfp.tmp

-------------
DIPOLE MOMENT
-------------
                                X             Y             Z
Electronic contribution:     84.96046     192.22244      64.41081
Nuclear contribution   :    -46.76368    -102.38926     -32.85200
                        -----------------------------------------
Total Dipole Moment    :     38.19678      89.83318      31.55882
                        -----------------------------------------
Magnitude (a.u.)       :    102.59120
Magnitude (Debye)      :    260.76610


Timings for individual modules:

Sum of individual times         ...        0.242 sec (=   0.004 min)
STO integral calculation        ...        0.051 sec (=   0.001 min)  21.2 %
SCF iterations                  ...        0.191 sec (=   0.003 min)  78.8 %
                             ****ORCA TERMINATED NORMALLY****
TOTAL RUN TIME: 0 days 0 hours 0 minutes 0 seconds 573 msec

