
                                 *****************
                                 * O   R   C   A *
                                 *****************

           --- An Ab Initio, DFT and Semiempirical electronic structure package ---

                  #######################################################
                  #                        -***-                        #
                  #  Department of molecular theory and spectroscopy    #
                  #              Directorship: Frank Neese              #
                  # Max Planck Institute for Chemical Energy Conversion #
                  #                  D-45470 Muelheim/Ruhr              #
                  #                       Germany                       #
                  #                                                     #
                  #                  All rights reserved                #
                  #                        -***-                        #
                  #######################################################


                         Program Version 4.0.1.2 - RELEASE -


 With contributions from (in alphabetic order):
   Daniel Aravena         : Magnetic Properties
   Michael Atanasov       : Ab Initio Ligand Field Theory
   Ute Becker             : Parallelization
   Martin Brehm           : Molecular dynamics
   Dmytro Bykov           : SCF Hessian
   Vijay G. Chilkuri      : MRCI spin determinant printing
   Dipayan Datta          : RHF DLPNO-CCSD density
   Achintya Kumar Dutta   : EOM-CC, STEOM-CC
   Dmitry Ganyushin       : Spin-Orbit,Spin-Spin,Magnetic field MRCI
   Yang Guo               : DLPNO-NEVPT2, CIM, IAO-localization
   Andreas Hansen         : Spin unrestricted coupled pair/coupled cluster methods
   Lee Huntington         : MR-EOM, pCC
   Robert Izsak           : Overlap fitted RIJCOSX, COSX-SCS-MP3, EOM
   Christian Kollmar      : KDIIS, OOCD, Brueckner-CCSD(T), CCSD density
   Simone Kossmann        : Meta GGA functionals, TD-DFT gradient, OOMP2, MP2 Hessian
   Martin Krupicka        : AUTO-CI
   Dagmar Lenk            : GEPOL surface
   Dimitrios Liakos       : Extrapolation schemes; parallel MDCI
   Dimitrios Manganas     : ROCIS; embedding schemes
   Dimitrios Pantazis     : SARC Basis sets
   Taras Petrenko         : DFT Hessian,TD-DFT gradient, ASA, ECA, R-Raman, ABS, FL, XAS/XES, NRVS
   Peter Pinski           : DLPNO-MP2
   Christoph Reimann      : Effective Core Potentials
   Marius Retegan         : Local ZFS, SOC
   Christoph Riplinger    : Optimizer, TS searches, QM/MM, DLPNO-CCSD(T), (RO)-DLPNO pert. Triples
   Tobias Risthaus        : Range-separated hybrids, TD-DFT gradient, RPA, STAB
   Michael Roemelt        : Restricted open shell CIS
   Masaaki Saitow         : Open-shell DLPNO
   Barbara Sandhoefer     : DKH picture change effects
   Kantharuban Sivalingam : CASSCF convergence, NEVPT2, FIC-MRCI
   Georgi Stoychev        : AutoAux
   Boris Wezisla          : Elementary symmetry handling
   Frank Wennmohs         : Technical directorship


 We gratefully acknowledge several colleagues who have allowed us to
 interface, adapt or use parts of their codes:
   Stefan Grimme, W. Hujo, H. Kruse,             : VdW corrections, initial TS optimization,
                  C. Bannwarth                     DFT functionals, gCP, sTDA/sTD-DF
   Ed Valeev                                     : LibInt (2-el integral package), F12 methods
   Garnet Chan, S. Sharma, J. Yang, R. Olivares  : DMRG
   Ulf Ekstrom                                   : XCFun DFT Library
   Mihaly Kallay                                 : mrcc  (arbitrary order and MRCC methods)
   Andreas Klamt, Michael Diedenhofen            : otool_cosmo (COSMO solvation model)
   Jiri Pittner, Ondrej Demel                    : Mk-CCSD
   Frank Weinhold                                : gennbo (NPA and NBO analysis)
   Christopher J. Cramer and Donald G. Truhlar   : smd solvation model


 Your calculation uses the libint2 library for the computation of 2-el integrals
 For citations please refer to: http://libint.valeyev.net

 This ORCA versions uses:
   CBLAS   interface :  Fast vector & matrix operations
   LAPACKE interface :  Fast linear algebra routines
   SCALAPACK package :  Parallel linear algebra routines


leaving
Your calculation utilizes the basis: def2-SVP
   F. Weigend and R. Ahlrichs, Phys. Chem. Chem. Phys. 7, 3297 (2005).

================================================================================
                                        WARNINGS
                       Please study these warnings very carefully!
================================================================================

Warning: TCutStore was < 0. Adjusted to Thresh (uncritical)

WARNING: Direct SCF is incompatible with Method<>HF and Method<>DFT
  ===> : conventional SCF is chosen

WARNING: The NDO methods need Guess=HUECKEL or Guess=HCORE or Guess=MOREAD
  ===> : Guess is set to Hueckel

WARNING: The NDO methods need %rel::SOCType==1
  ===> : %rel::SOCType is set to 1

WARNING: The NDO methods cannot have frozencore=1
  ===> : %method FrozenCore=0 end

INFO   : the flag for use of LIBINT has been found!

================================================================================
                                       INPUT FILE
================================================================================
NAME = /home/mattyjones/Software/morphct/tests/output_EZ/donor_polymer/chromophores/input_orca/pair/00000-00002.inp
|  1> # ================================================================
|  2> # Orca input file made by Matty Jones
|  3> # ================================================================
|  4> ! ZINDO/S 
|  5> ! NOPOP
|  6> ! NOMOPRINT
|  7> * xyz 0   1
|  8>  C  -1.59622  4.86732  42.09726
|  9>  C  -1.04160  4.00072  41.15424
| 10>  C  0.10245  3.28256  41.62293
| 11>  C  0.45297  3.58361  42.94271
| 12>  S  -0.65546  4.70670  43.45309
| 13>  H  -1.33537  4.16130  40.06414
| 14>  C  0.70954  2.27748  40.49998
| 15>  C  -0.49484  1.99544  39.24713
| 16>  C  -1.87179  0.99198  39.33999
| 17>  H  -1.50875  -0.08285  39.11496
| 18>  H  -2.20553  1.04019  40.44933
| 19>  H  0.17139  1.38875  38.49333
| 20>  H  -0.76355  2.95478  38.67777
| 21>  H  0.97167  1.25166  40.96078
| 22>  H  1.63843  2.73823  39.99115
| 23>  C  -3.20788  1.27529  38.41729
| 24>  C  -3.44466  2.66457  37.46052
| 25>  C  -4.92456  2.70249  36.63555
| 26>  H  -5.69948  2.05386  37.19814
| 27>  H  -4.77556  2.28884  35.56531
| 28>  H  -5.30285  3.79478  36.57858
| 29>  H  -2.59982  2.71459  36.68212
| 30>  H  -3.40026  3.58456  38.15012
| 31>  H  -3.30842  0.38644  37.67856
| 32>  H  -4.12396  1.25155  39.13028
| 33>  C  4.04718  0.78934  -38.64864
| 34>  C  3.39491  -0.43583  -38.79492
| 35>  C  3.98839  -1.50531  -38.05447
| 36>  C  5.11498  -1.12270  -37.31981
| 37>  S  5.31468  0.49593  -37.62080
| 38>  H  2.29380  -0.45072  -39.08727
| 39>  C  3.28155  -2.94604  -38.17896
| 40>  C  1.59600  -2.90899  -38.01519
| 41>  C  0.93002  -2.65777  -39.54150
| 42>  H  -0.16676  -2.32031  -39.40406
| 43>  H  1.48839  -1.86970  -40.16528
| 44>  H  1.22123  -3.90153  -37.57553
| 45>  H  1.30327  -2.03774  -37.32265
| 46>  H  3.58039  -3.79662  -37.45754
| 47>  H  3.52355  -3.35652  -39.24959
| 48>  C  1.00752  -4.05727  -40.36632
| 49>  C  0.33579  -3.93287  -41.89932
| 50>  C  -1.28561  -4.36413  -41.85800
| 51>  H  -1.89461  -3.63056  -42.51336
| 52>  H  -1.67726  -4.32204  -40.76924
| 53>  H  -1.39884  -5.44141  -42.26622
| 54>  H  0.42911  -2.84571  -42.26949
| 55>  H  0.90142  -4.63563  -42.61564
| 56>  H  2.10880  -4.38199  -40.50530
| 57>  H  0.45584  -4.88756  -39.77949
| 58>  H  -2.44079  5.49568  41.97290
| 59>  H  1.25849  3.17875  43.50023
| 60>  H  3.78709  1.71271  -39.09957
| 61>  H  5.71559  -1.73832  -36.70023
| 62> *
| 63> 
| 64>                          ****END OF INPUT****
================================================================================

                       ****************************
                       * Single Point Calculation *
                       ****************************

---------------------------------
CARTESIAN COORDINATES (ANGSTROEM)
---------------------------------
  C     -1.596220    4.867320   42.097260
  C     -1.041600    4.000720   41.154240
  C      0.102450    3.282560   41.622930
  C      0.452970    3.583610   42.942710
  S     -0.655460    4.706700   43.453090
  H     -1.335370    4.161300   40.064140
  C      0.709540    2.277480   40.499980
  C     -0.494840    1.995440   39.247130
  C     -1.871790    0.991980   39.339990
  H     -1.508750   -0.082850   39.114960
  H     -2.205530    1.040190   40.449330
  H      0.171390    1.388750   38.493330
  H     -0.763550    2.954780   38.677770
  H      0.971670    1.251660   40.960780
  H      1.638430    2.738230   39.991150
  C     -3.207880    1.275290   38.417290
  C     -3.444660    2.664570   37.460520
  C     -4.924560    2.702490   36.635550
  H     -5.699480    2.053860   37.198140
  H     -4.775560    2.288840   35.565310
  H     -5.302850    3.794780   36.578580
  H     -2.599820    2.714590   36.682120
  H     -3.400260    3.584560   38.150120
  H     -3.308420    0.386440   37.678560
  H     -4.123960    1.251550   39.130280
  C      4.047180    0.789340  -38.648640
  C      3.394910   -0.435830  -38.794920
  C      3.988390   -1.505310  -38.054470
  C      5.114980   -1.122700  -37.319810
  S      5.314680    0.495930  -37.620800
  H      2.293800   -0.450720  -39.087270
  C      3.281550   -2.946040  -38.178960
  C      1.596000   -2.908990  -38.015190
  C      0.930020   -2.657770  -39.541500
  H     -0.166760   -2.320310  -39.404060
  H      1.488390   -1.869700  -40.165280
  H      1.221230   -3.901530  -37.575530
  H      1.303270   -2.037740  -37.322650
  H      3.580390   -3.796620  -37.457540
  H      3.523550   -3.356520  -39.249590
  C      1.007520   -4.057270  -40.366320
  C      0.335790   -3.932870  -41.899320
  C     -1.285610   -4.364130  -41.858000
  H     -1.894610   -3.630560  -42.513360
  H     -1.677260   -4.322040  -40.769240
  H     -1.398840   -5.441410  -42.266220
  H      0.429110   -2.845710  -42.269490
  H      0.901420   -4.635630  -42.615640
  H      2.108800   -4.381990  -40.505300
  H      0.455840   -4.887560  -39.779490
  H     -2.440790    5.495680   41.972900
  H      1.258490    3.178750   43.500230
  H      3.787090    1.712710  -39.099570
  H      5.715590   -1.738320  -36.700230

----------------------------
CARTESIAN COORDINATES (A.U.)
----------------------------
  NO LB      ZA    FRAG     MASS         X           Y           Z
   0 C     4.0000    0    12.011   -3.016419    9.197902   79.552292
   1 C     4.0000    0    12.011   -1.968339    7.560265   77.770243
   2 C     4.0000    0    12.011    0.193602    6.203139   78.655939
   3 C     4.0000    0    12.011    0.855989    6.772041   81.149961
   4 S     6.0000    0    32.060   -1.238640    8.894374   82.114440
   5 H     1.0000    0     1.008   -2.523484    7.863717   75.710252
   6 C     4.0000    0    12.011    1.340836    4.303813   76.533871
   7 C     4.0000    0    12.011   -0.935112    3.770835   74.166327
   8 C     4.0000    0    12.011   -3.537170    1.874571   74.341807
   9 H     1.0000    0     1.008   -2.851124   -0.156564   73.916562
  10 H     1.0000    0     1.008   -4.167848    1.965674   76.438156
  11 H     1.0000    0     1.008    0.323880    2.624357   72.741852
  12 H     1.0000    0     1.008   -1.442900    5.583725   73.090393
  13 H     1.0000    0     1.008    1.836190    2.365295   77.404656
  14 H     1.0000    0     1.008    3.096184    5.174505   75.572321
  15 C     4.0000    0    12.011   -6.062015    2.409949   72.598157
  16 C     4.0000    0    12.011   -6.509464    5.035308   70.790124
  17 C     4.0000    0    12.011   -9.306070    5.106966   69.231156
  18 H     1.0000    0     1.008  -10.770456    3.881233   70.294297
  19 H     1.0000    0     1.008   -9.024501    4.325281   67.208696
  20 H     1.0000    0     1.008  -10.020934    7.171095   69.123499
  21 H     1.0000    0     1.008   -4.912948    5.129832   69.319161
  22 H     1.0000    0     1.008   -6.425560    6.773837   72.093279
  23 H     1.0000    0     1.008   -6.252008    0.730266   71.202160
  24 H     1.0000    0     1.008   -7.793155    2.365087   73.945513
  25 C     4.0000    0    12.011    7.648062    1.491636  -73.035345
  26 C     4.0000    0    12.011    6.415450   -0.823599  -73.311774
  27 C     4.0000    0    12.011    7.536965   -2.844624  -71.912526
  28 C     4.0000    0    12.011    9.665911   -2.121596  -70.524220
  29 S     6.0000    0    32.060   10.043290    0.937172  -71.093009
  30 H     1.0000    0     1.008    4.334654   -0.851737  -73.864236
  31 C     4.0000    0    12.011    6.201231   -5.567209  -72.147778
  32 C     4.0000    0    12.011    3.016003   -5.497194  -71.838298
  33 C     4.0000    0    12.011    1.757483   -5.022457  -74.722606
  34 H     1.0000    0     1.008   -0.315131   -4.384750  -74.462882
  35 H     1.0000    0     1.008    2.812649   -3.533221  -75.901379
  36 H     1.0000    0     1.008    2.307790   -7.372823  -71.007461
  37 H     1.0000    0     1.008    2.462823   -3.850771  -70.529587
  38 H     1.0000    0     1.008    6.765957   -7.174572  -70.784492
  39 H     1.0000    0     1.008    6.658545   -6.342904  -74.170976
  40 C     4.0000    0    12.011    1.903937   -7.667129  -76.281290
  41 C     4.0000    0    12.011    0.634551   -7.432047  -79.178240
  42 C     4.0000    0    12.011   -2.429451   -8.247011  -79.100157
  43 H     1.0000    0     1.008   -3.580294   -6.860764  -80.338607
  44 H     1.0000    0     1.008   -3.169562   -8.167472  -77.042698
  45 H     1.0000    0     1.008   -2.643425  -10.282775  -79.871581
  46 H     1.0000    0     1.008    0.810900   -5.377613  -79.877760
  47 H     1.0000    0     1.008    1.703437   -8.760071  -80.531889
  48 H     1.0000    0     1.008    3.985054   -8.280761  -76.543924
  49 H     1.0000    0     1.008    0.861413   -9.236150  -75.172342
  50 H     1.0000    0     1.008   -4.612425   10.385330   79.317286
  51 H     1.0000    0     1.008    2.378201    6.006967   82.203521
  52 H     1.0000    0     1.008    7.156563    3.236553  -73.887479
  53 H     1.0000    0     1.008   10.800900   -3.284949  -69.353384

--------------------------------
INTERNAL COORDINATES (ANGSTROEM)
--------------------------------
 C      0   0   0     0.000000000000     0.00000000     0.00000000
 C      1   0   0     1.395666731279     0.00000000     0.00000000
 C      2   1   0     1.429781278448   114.10200489     0.00000000
 C      3   2   1     1.398325649232   113.69261097     0.00000000
 S      1   2   3     1.658041962949   105.47964668     0.00000000
 H      2   1   3     1.140352909980   117.13531212   197.09131759
 C      3   2   1     1.624734063470   112.52816850   179.54244967
 C      7   3   2     1.760599576423   109.59218332   342.21945205
 C      8   7   3     1.706325365720   127.40949925   283.84391378
 H      9   8   7     1.156588116574   106.41693073   277.47302422
 H      9   8   7     1.159457557352   105.06384551    32.27793699
 H      8   7   3     1.174797688540    98.70714688   172.88729493
 H      8   7   3     1.147479459206   112.29332890    63.49968526
 H      7   3   2     1.154710114834   111.01240919   223.90112541
 H      7   3   2     1.155004399775   110.99069711   100.79225965
 C      9   8   7     1.648264643254   121.50579175   153.84167974
 C     16   9   8     1.703400281701   124.56180380   351.54668794
 C     17  16   9     1.694732261244   114.39664021   180.96563378
 H     18  17  16     1.156602520921   109.61734466    25.20914212
 H     18  17  16     1.157031105935   109.25769640   265.07337264
 H     18  17  16     1.157344524807   109.29944970   145.26002054
 H     17  16   9     1.149853549805   108.27521773    60.33382210
 H     17  16   9     1.150609021388   108.06655750   301.17566326
 H     16   9   8     1.160122677565   107.15881540   114.02572431
 H     16   9   8     1.161086083846   106.99465887   229.51345025
 C     20  18  17    74.751586043107   160.17049260   257.46426773
 C     26  20  18     1.395670276319    93.81325879   211.68015524
 C     27  26  20     1.429780466820   114.10151909   301.60485341
 C     28  27  26     1.398327842746   113.69308219     0.00000000
 S     26  20  18     1.658041237032    58.55519380   105.85034111
 H     27  26  20     1.139356602079   119.34253868    97.15632949
 C     28  27  26     1.609603515963   116.56364890   179.91937984
 C     32  28  27     1.693892593378   114.19986388   313.60275081
 C     33  32  28     1.684120858163   108.00734059    88.91067265
 H     34  33  32     1.155722879241   108.12294196   196.62635652
 H     34  33  32     1.149753395385   113.69665051   317.78403485
 H     33  32  28     1.148428979128   110.04972022   209.36565782
 H     33  32  28     1.150816695656   109.13865789   330.08223925
 H     32  28  27     1.154659472918   119.82723569   191.78936705
 H     32  28  27     1.171881575630   107.06760014    72.53221057
 C     34  33  32     1.626325469394   108.20599235    76.43710200
 C     41  34  33     1.678328201783   112.35817532   178.69413986
 C     42  41  34     1.678282005504   110.19017116   267.93264620
 H     43  42  41     1.156936763397   109.37021018   138.25381678
 H     43  42  41     1.157825387612   109.91398832    18.17616325
 H     43  42  41     1.157582307959   108.96300656   258.29139690
 H     42  41  34     1.152237526251   109.32724823    27.93302518
 H     42  41  34     1.151921549803   109.04146918   147.78830335
 H     41  34  33     1.156536275782   110.36092758   298.00932056
 H     41  34  33     1.156763482913   109.73358260    57.24848681
 H      1   2   3     1.060000086840   127.25983591   179.99993049
 H      4   3   2     1.060001245471   127.20574724   179.99978555
 H     26  20  18     1.059998504669   112.08070638   344.66736697
 H     29  28  27     1.059999874009   127.20612265   179.99938357

---------------------------
INTERNAL COORDINATES (A.U.)
---------------------------
 C      0   0   0     0.000000000000     0.00000000     0.00000000
 C      1   0   0     2.637427896343     0.00000000     0.00000000
 C      2   1   0     2.701895047674   114.10200489     0.00000000
 C      3   2   1     2.642452523086   113.69261097     0.00000000
 S      1   2   3     3.133245228523   105.47964668     0.00000000
 H      2   1   3     2.154954695882   117.13531212   197.09131759
 C      3   2   1     3.070302420411   112.52816850   179.54244967
 C      7   3   2     3.327051030937   109.59218332   342.21945205
 C      8   7   3     3.224487636574   127.40949925   283.84391378
 H      9   8   7     2.185634790072   106.41693073   277.47302422
 H      9   8   7     2.191057247300   105.06384551    32.27793699
 H      8   7   3     2.220045894105    98.70714688   172.88729493
 H      8   7   3     2.168421922200   112.29332890    63.49968526
 H      7   3   2     2.182085881105   111.01240919   223.90112541
 H      7   3   2     2.182641999049   110.99069711   100.79225965
 C      9   8   7     3.114768771975   121.50579175   153.84167974
 C     16   9   8     3.218960028860   124.56180380   351.54668794
 C     17  16   9     3.202579844072   114.39664021   180.96563378
 H     18  17  16     2.185662010343   109.61734466    25.20914212
 H     18  17  16     2.186471918644   109.25769640   265.07337264
 H     18  17  16     2.187064194478   109.29944970   145.26002054
 H     17  16   9     2.172908303249   108.27521773    60.33382210
 H     17  16   9     2.174335937643   108.06655750   301.17566326
 H     16   9   8     2.192314142349   107.15881540   114.02572431
 H     16   9   8     2.194134716375   106.99465887   229.51345025
 C     20  18  17   141.260025697723   160.17049260   257.46426773
 C     26  20  18     2.637434595497    93.81325879   211.68015524
 C     27  26  20     2.701893513920   114.10151909   301.60485341
 C     28  27  26     2.642456668228   113.69308219     0.00000000
 S     26  20  18     3.133243856739    58.55519380   105.85034111
 H     27  26  20     2.153071946804   119.34253868    97.15632949
 C     28  27  26     3.041709829367   116.56364890   179.91937984
 C     32  28  27     3.200993101762   114.19986388   313.60275081
 C     33  32  28     3.182527198353   108.00734059    88.91067265
 H     34  33  32     2.183999728472   108.12294196   196.62635652
 H     34  33  32     2.172719038824   113.69665051   317.78403485
 H     33  32  28     2.170216254810   110.04972022   209.36565782
 H     33  32  28     2.174728385134   109.13865789   330.08223925
 H     32  28  27     2.181990181753   119.82723569   191.78936705
 H     32  28  27     2.214535239328   107.06760014    72.53221057
 C     34  33  32     3.073309741776   108.20599235    76.43710200
 C     41  34  33     3.171580664206   112.35817532   178.69413986
 C     42  41  34     3.171493365892   110.19017116   267.93264620
 H     43  42  41     2.186293637086   109.37021018   138.25381678
 H     43  42  41     2.187972893489   109.91398832    18.17616325
 H     43  42  41     2.187513539515   108.96300656   258.29139690
 H     42  41  34     2.177413365840   109.32724823    27.93302518
 H     42  41  34     2.176816256889   109.04146918   147.78830335
 H     41  34  33     2.185536825173   110.36092758   298.00932056
 H     41  34  33     2.185966184426   109.73358260    57.24848681
 H      1   2   3     2.003109866060   127.25983591   179.99993049
 H      4   3   2     2.003112055556   127.20574724   179.99978555
 H     26  20  18     2.003106876190   112.08070638   344.66736697
 H     29  28  27     2.003109463869   127.20612265   179.99938357

----------------------------
SLATER BASIS SET DIM= 120
----------------------------
  0 C     2 shells
 l=0 nsto= 1
    2       1.625000000000        1.000000000000
 l=1 nsto= 1
    2       1.625000000000        1.000000000000
  1 C     2 shells
 l=0 nsto= 1
    2       1.625000000000        1.000000000000
 l=1 nsto= 1
    2       1.625000000000        1.000000000000
  2 C     2 shells
 l=0 nsto= 1
    2       1.625000000000        1.000000000000
 l=1 nsto= 1
    2       1.625000000000        1.000000000000
  3 C     2 shells
 l=0 nsto= 1
    2       1.625000000000        1.000000000000
 l=1 nsto= 1
    2       1.625000000000        1.000000000000
  4 S     2 shells
 l=0 nsto= 1
    3       1.925000000000        1.000000000000
 l=1 nsto= 1
    3       1.925000000000        1.000000000000
  5 H     1 shells
 l=0 nsto= 1
    1       1.200000000000        1.000000000000
  6 C     2 shells
 l=0 nsto= 1
    2       1.625000000000        1.000000000000
 l=1 nsto= 1
    2       1.625000000000        1.000000000000
  7 C     2 shells
 l=0 nsto= 1
    2       1.625000000000        1.000000000000
 l=1 nsto= 1
    2       1.625000000000        1.000000000000
  8 C     2 shells
 l=0 nsto= 1
    2       1.625000000000        1.000000000000
 l=1 nsto= 1
    2       1.625000000000        1.000000000000
  9 H     1 shells
 l=0 nsto= 1
    1       1.200000000000        1.000000000000
 10 H     1 shells
 l=0 nsto= 1
    1       1.200000000000        1.000000000000
 11 H     1 shells
 l=0 nsto= 1
    1       1.200000000000        1.000000000000
 12 H     1 shells
 l=0 nsto= 1
    1       1.200000000000        1.000000000000
 13 H     1 shells
 l=0 nsto= 1
    1       1.200000000000        1.000000000000
 14 H     1 shells
 l=0 nsto= 1
    1       1.200000000000        1.000000000000
 15 C     2 shells
 l=0 nsto= 1
    2       1.625000000000        1.000000000000
 l=1 nsto= 1
    2       1.625000000000        1.000000000000
 16 C     2 shells
 l=0 nsto= 1
    2       1.625000000000        1.000000000000
 l=1 nsto= 1
    2       1.625000000000        1.000000000000
 17 C     2 shells
 l=0 nsto= 1
    2       1.625000000000        1.000000000000
 l=1 nsto= 1
    2       1.625000000000        1.000000000000
 18 H     1 shells
 l=0 nsto= 1
    1       1.200000000000        1.000000000000
 19 H     1 shells
 l=0 nsto= 1
    1       1.200000000000        1.000000000000
 20 H     1 shells
 l=0 nsto= 1
    1       1.200000000000        1.000000000000
 21 H     1 shells
 l=0 nsto= 1
    1       1.200000000000        1.000000000000
 22 H     1 shells
 l=0 nsto= 1
    1       1.200000000000        1.000000000000
 23 H     1 shells
 l=0 nsto= 1
    1       1.200000000000        1.000000000000
 24 H     1 shells
 l=0 nsto= 1
    1       1.200000000000        1.000000000000
 25 C     2 shells
 l=0 nsto= 1
    2       1.625000000000        1.000000000000
 l=1 nsto= 1
    2       1.625000000000        1.000000000000
 26 C     2 shells
 l=0 nsto= 1
    2       1.625000000000        1.000000000000
 l=1 nsto= 1
    2       1.625000000000        1.000000000000
 27 C     2 shells
 l=0 nsto= 1
    2       1.625000000000        1.000000000000
 l=1 nsto= 1
    2       1.625000000000        1.000000000000
 28 C     2 shells
 l=0 nsto= 1
    2       1.625000000000        1.000000000000
 l=1 nsto= 1
    2       1.625000000000        1.000000000000
 29 S     2 shells
 l=0 nsto= 1
    3       1.925000000000        1.000000000000
 l=1 nsto= 1
    3       1.925000000000        1.000000000000
 30 H     1 shells
 l=0 nsto= 1
    1       1.200000000000        1.000000000000
 31 C     2 shells
 l=0 nsto= 1
    2       1.625000000000        1.000000000000
 l=1 nsto= 1
    2       1.625000000000        1.000000000000
 32 C     2 shells
 l=0 nsto= 1
    2       1.625000000000        1.000000000000
 l=1 nsto= 1
    2       1.625000000000        1.000000000000
 33 C     2 shells
 l=0 nsto= 1
    2       1.625000000000        1.000000000000
 l=1 nsto= 1
    2       1.625000000000        1.000000000000
 34 H     1 shells
 l=0 nsto= 1
    1       1.200000000000        1.000000000000
 35 H     1 shells
 l=0 nsto= 1
    1       1.200000000000        1.000000000000
 36 H     1 shells
 l=0 nsto= 1
    1       1.200000000000        1.000000000000
 37 H     1 shells
 l=0 nsto= 1
    1       1.200000000000        1.000000000000
 38 H     1 shells
 l=0 nsto= 1
    1       1.200000000000        1.000000000000
 39 H     1 shells
 l=0 nsto= 1
    1       1.200000000000        1.000000000000
 40 C     2 shells
 l=0 nsto= 1
    2       1.625000000000        1.000000000000
 l=1 nsto= 1
    2       1.625000000000        1.000000000000
 41 C     2 shells
 l=0 nsto= 1
    2       1.625000000000        1.000000000000
 l=1 nsto= 1
    2       1.625000000000        1.000000000000
 42 C     2 shells
 l=0 nsto= 1
    2       1.625000000000        1.000000000000
 l=1 nsto= 1
    2       1.625000000000        1.000000000000
 43 H     1 shells
 l=0 nsto= 1
    1       1.200000000000        1.000000000000
 44 H     1 shells
 l=0 nsto= 1
    1       1.200000000000        1.000000000000
 45 H     1 shells
 l=0 nsto= 1
    1       1.200000000000        1.000000000000
 46 H     1 shells
 l=0 nsto= 1
    1       1.200000000000        1.000000000000
 47 H     1 shells
 l=0 nsto= 1
    1       1.200000000000        1.000000000000
 48 H     1 shells
 l=0 nsto= 1
    1       1.200000000000        1.000000000000
 49 H     1 shells
 l=0 nsto= 1
    1       1.200000000000        1.000000000000
 50 H     1 shells
 l=0 nsto= 1
    1       1.200000000000        1.000000000000
 51 H     1 shells
 l=0 nsto= 1
    1       1.200000000000        1.000000000000
 52 H     1 shells
 l=0 nsto= 1
    1       1.200000000000        1.000000000000
 53 H     1 shells
 l=0 nsto= 1
    1       1.200000000000        1.000000000000
------------------------------------------------------------------------------
                           ORCA NDO INTEGRAL CALCULATION
------------------------------------------------------------------------------

--------------
NDO PARAMETERS
--------------

Gamma integral treatment              ... Mataga-Nishimoto
Nuclear repulsuion treatment          ... Direct (ZA*ZB/RAB)
Interaction factors:
s-s (sigma) =    1.0000
s-p (sigma) =    1.0000
s-d (sigma) =    1.0000
p-p (sigma) =    1.2670  p-p(pi) =    0.5850
p-d (sigma) =    1.0000  p-d(pi) =    1.0000
d-d (sigma) =    1.0000  d-d(pi) =    1.0000 d-d (delta) =    1.0000

fGamma parameter for Mataga-Nishimoto gamma integrals:    1.2000

--------------------------
Parameters for Element H :
--------------------------
 One-electron parameters (in eV)
  U(s)  =   -13.060000 Beta(s) =    12.000000 Neff(s) =     1.000000
 One-center electron repulsion parameters (in eV)
  G(s,s)=    12.850000
--------------------------
Parameters for Element C :
--------------------------
 One-electron parameters (in eV)
  U(s)  =   -50.870766 Beta(s) =    17.000000 Neff(s) =     2.000000
  U(p)  =   -41.599980 Beta(p) =    17.000000 Neff(p) =     2.000000 
 One-center electron repulsion parameters (in eV)
  G(s,s)=    11.110000
  G(s,p)=    11.110000 G(p,p)  =    11.110000
 Slater-Condon parameters (in eV)
 F2(p,p)=     4.5098 G1(s,p)=    6.8977
--------------------------
Parameters for Element S :
--------------------------
 One-electron parameters (in eV)
  U(s)  =   -69.509597 Beta(s) =    15.000000 Neff(s) =     2.000000
  U(p)  =   -60.725746 Beta(p) =    15.000000 Neff(p) =     4.000000 
 One-center electron repulsion parameters (in eV)
  G(s,s)=    10.090000
  G(s,p)=    10.090000 G(p,p)  =    10.090000
 Slater-Condon parameters (in eV)
 F2(p,p)=     4.5377 G1(s,p)=    3.0756

 Number of atoms                    ....   54
 Number of basis functions          ....  120

 Overlap integrals                  .... done
 One electron matrix                .... done
 Nuclear repulsion                  .... done
 Integral list                      .... done
 Electron-electron repulsion        .... done
-------------------------------------------------------------------------------
                                 ORCA SCF
-------------------------------------------------------------------------------

------------
SCF SETTINGS
------------
Hamiltonian:
 ZDO-Hamiltonian        Method          .... INDO


General Settings:
 Integral files         IntName         .... /home/mattyjones/Software/morphct/tests/output_EZ/donor_polymer/chromophores/input_orca/pair/00000-00002
 Hartree-Fock type      HFTyp           .... RHF
 Total Charge           Charge          ....    0
 Multiplicity           Mult            ....    1
 Number of Electrons    NEL             ....  124
 Basis Dimension        Dim             ....  120
 Nuclear Repulsion      ENuc            ....    628.2406753164 Eh

Convergence Acceleration:
 DIIS                   CNVDIIS         .... on
   Start iteration      DIISMaxIt       ....    12
   Startup error        DIISStart       ....  0.200000
   # of expansion vecs  DIISMaxEq       ....     5
   Bias factor          DIISBfac        ....   1.050
   Max. coefficient     DIISMaxC        ....  10.000
 Newton-Raphson         CNVNR           .... off
 SOSCF                  CNVSOSCF        .... on
   Start iteration      SOSCFMaxIt      ....   150
   Startup grad/error   SOSCFStart      ....  0.003300
 Level Shifting         CNVShift        .... on
   Level shift para.    LevelShift      ....    0.2500
   Turn off err/grad.   ShiftErr        ....    0.0010
 Zerner damping         CNVZerner       .... off
 Static damping         CNVDamp         .... on
   Fraction old density DampFac         ....    0.7000
   Max. Damping (<1)    DampMax         ....    0.9800
   Min. Damping (>=0)   DampMin         ....    0.0000
   Turn off err/grad.   DampErr         ....    0.1000
 Fernandez-Rico         CNVRico         .... off

SCF Procedure:
 Maximum # iterations   MaxIter         ....   125
 SCF integral mode      SCFMode         .... Conventional
 Integral Buffer length BufferLength    .... 1048576
 Integral index format  IndFormat       ....     0
 Integral value format  ValFormat       ....     0
 Integral Storage       Thresh          ....  1.000e-08 Eh

Convergence Tolerance:
 Convergence Check Mode ConvCheckMode   .... Total+1el-Energy
 Convergence forced     ConvForced      .... 0
 Energy Change          TolE            ....  1.000e-06 Eh
 1-El. energy change                    ....  1.000e-03 Eh
 Orbital Gradient       TolG            ....  5.000e-05
 Orbital Rotation angle TolX            ....  5.000e-05
 DIIS Error             TolErr          ....  1.000e-06


Diagonalization of the overlap matrix:
Smallest eigenvalue                        ... 1.693e-01
Time for diagonalization                   ...    0.003 sec
Threshold for overlap eigenvalues          ... 1.000e-08
Number of eigenvalues below threshold      ... 0
Time for construction of square roots      ...    0.000 sec
Total time needed                          ...    0.003 sec

-------------------------------
INITIAL GUESS: EXTENDED HUECKEL
-------------------------------
EHT matrix was read from disk
EHT matrix was diagonalized
Initial density was built
                      ------------------
                      INITIAL GUESS DONE
                      ------------------

 InCore treatment chosen:
   Memory dedicated               ...    1024 MB
   Memory needed                  ...      0 MB
   Number of tiny    integrals    ...       0
   Number of small   integrals    ...       0
   Number of regular integrals    ...    7392

--------------
SCF ITERATIONS
--------------
ITER       Energy         Delta-E        Max-DP      RMS-DP      [F,P]     Damp
  0    -14.0602107226   0.000000000000 0.04142175  0.00145202  0.1108484 0.7000
  1    -14.1023585201  -0.042147797477 0.03911554  0.00137012  0.0755671 0.7000
                               ***Turning on DIIS***
  2    -14.1335895322  -0.031231012102 0.09900401  0.00352238  0.0473244 0.0000
  3    -14.2130963057  -0.079506773478 0.01944102  0.00072800  0.0214375 0.0000
  4    -14.1999062847   0.013190020959 0.01068046  0.00050429  0.0076823 0.0000
  5    -14.2177946514  -0.017888366751 0.00795481  0.00034189  0.0043659 0.0000
  6    -14.2206224204  -0.002827768911 0.00630550  0.00024373  0.0023038 0.0000
                      *** Initiating the SOSCF procedure ***
                           *** Shutting down DIIS ***
                      *** Re-Reading the Fockian *** 
                      *** Removing any level shift *** 
ITER      Energy       Delta-E        Grad      Rot      Max-DP    RMS-DP
  7    -14.21627360   0.0043488245  0.003079  0.003079  0.003803  0.000139
  8    -14.21390365   0.0023699466  0.000843  0.002349  0.001927  0.000065
  9    -14.21391965  -0.0000160032  0.000378  0.002355  0.002225  0.000070
 10    -14.21392565  -0.0000059932  0.000037  0.000107  0.000153  0.000005
                 **** Energy Check signals convergence ****
              ***Rediagonalizing the Fockian in SOSCF/NRSCF***

               *****************************************************
               *                     SUCCESS                       *
               *           SCF CONVERGED AFTER  11 CYCLES          *
               *****************************************************


----------------
TOTAL SCF ENERGY
----------------

Total Energy       :          -14.21392571 Eh            -386.78058 eV

Components:
Nuclear Repulsion  :          628.24067532 Eh           17095.29788 eV
Electronic Energy  :         -642.45460102 Eh          -17482.07847 eV
One Electron Energy:        -1194.53527851 Eh          -32504.95745 eV
Two Electron Energy:          552.08067749 Eh           15022.87898 eV


---------------
SCF CONVERGENCE
---------------

  Last Energy change         ...   -5.9745e-08  Tolerance :   1.0000e-06
  Last MAX-Density change    ...    6.0248e-05  Tolerance :   1.0000e-05
  Last RMS-Density change    ...    1.6026e-06  Tolerance :   1.0000e-06
  Last Orbital Gradient      ...    1.6547e-05  Tolerance :   5.0000e-05
  Last Orbital Rotation      ...    3.3853e-05  Tolerance :   5.0000e-05

             **** THE GBW FILE WAS UPDATED (/home/mattyjones/Software/morphct/tests/output_EZ/donor_polymer/chromophores/input_orca/pair/00000-00002.gbw) ****
             **** DENSITY FILE WAS UPDATED (/home/mattyjones/Software/morphct/tests/output_EZ/donor_polymer/chromophores/input_orca/pair/00000-00002.scfp.tmp) ****
             **** ENERGY FILE WAS UPDATED (/home/mattyjones/Software/morphct/tests/output_EZ/donor_polymer/chromophores/input_orca/pair/00000-00002.en.tmp) ****
----------------
ORBITAL ENERGIES
----------------

  NO   OCC          E(Eh)            E(eV) 
   0   2.0000      -1.565268       -42.5931 
   1   2.0000      -1.560474       -42.4627 
   2   2.0000      -1.429226       -38.8912 
   3   2.0000      -1.380612       -37.5684 
   4   2.0000      -1.301251       -35.4088 
   5   2.0000      -1.285124       -34.9700 
   6   2.0000      -1.184571       -32.2338 
   7   2.0000      -1.165753       -31.7218 
   8   2.0000      -1.124753       -30.6061 
   9   2.0000      -1.107629       -30.1401 
  10   2.0000      -1.025581       -27.9075 
  11   2.0000      -1.021893       -27.8071 
  12   2.0000      -0.977377       -26.5958 
  13   2.0000      -0.956113       -26.0172 
  14   2.0000      -0.933019       -25.3887 
  15   2.0000      -0.895525       -24.3685 
  16   2.0000      -0.870985       -23.7007 
  17   2.0000      -0.843890       -22.9634 
  18   2.0000      -0.831881       -22.6366 
  19   2.0000      -0.830955       -22.6114 
  20   2.0000      -0.784921       -21.3588 
  21   2.0000      -0.757639       -20.6164 
  22   2.0000      -0.741139       -20.1674 
  23   2.0000      -0.739363       -20.1191 
  24   2.0000      -0.702902       -19.1269 
  25   2.0000      -0.701939       -19.1007 
  26   2.0000      -0.666212       -18.1286 
  27   2.0000      -0.663939       -18.0667 
  28   2.0000      -0.648010       -17.6332 
  29   2.0000      -0.633500       -17.2384 
  30   2.0000      -0.615668       -16.7532 
  31   2.0000      -0.604893       -16.4600 
  32   2.0000      -0.603061       -16.4101 
  33   2.0000      -0.589004       -16.0276 
  34   2.0000      -0.576666       -15.6919 
  35   2.0000      -0.575678       -15.6650 
  36   2.0000      -0.572542       -15.5797 
  37   2.0000      -0.561327       -15.2745 
  38   2.0000      -0.552297       -15.0288 
  39   2.0000      -0.545175       -14.8350 
  40   2.0000      -0.538498       -14.6533 
  41   2.0000      -0.536107       -14.5882 
  42   2.0000      -0.528484       -14.3808 
  43   2.0000      -0.522358       -14.2141 
  44   2.0000      -0.501081       -13.6351 
  45   2.0000      -0.500483       -13.6188 
  46   2.0000      -0.499256       -13.5854 
  47   2.0000      -0.494582       -13.4583 
  48   2.0000      -0.487014       -13.2523 
  49   2.0000      -0.482666       -13.1340 
  50   2.0000      -0.477509       -12.9937 
  51   2.0000      -0.476500       -12.9662 
  52   2.0000      -0.469597       -12.7784 
  53   2.0000      -0.468003       -12.7350 
  54   2.0000      -0.452017       -12.3000 
  55   2.0000      -0.450458       -12.2576 
  56   2.0000      -0.436696       -11.8831 
  57   2.0000      -0.423369       -11.5205 
  58   2.0000      -0.353246        -9.6123 
  59   2.0000      -0.352042        -9.5795 
  60   2.0000      -0.304948        -8.2981 
  61   2.0000      -0.304327        -8.2812 
  62   0.0000       0.007052         0.1919 
  63   0.0000       0.008510         0.2316 
  64   0.0000       0.061545         1.6747 
  65   0.0000       0.064302         1.7498 
  66   0.0000       0.070454         1.9172 
  67   0.0000       0.082852         2.2545 
  68   0.0000       0.084355         2.2954 
  69   0.0000       0.091643         2.4937 
  70   0.0000       0.098867         2.6903 
  71   0.0000       0.107198         2.9170 
  72   0.0000       0.108733         2.9588 
  73   0.0000       0.110224         2.9993 
  74   0.0000       0.123021         3.3476 
  75   0.0000       0.125800         3.4232 
  76   0.0000       0.140480         3.8226 
  77   0.0000       0.141594         3.8530 
  78   0.0000       0.152863         4.1596 
  79   0.0000       0.159607         4.3431 
  80   0.0000       0.165222         4.4959 
  81   0.0000       0.166534         4.5316 
  82   0.0000       0.175286         4.7698 
  83   0.0000       0.175483         4.7751 
  84   0.0000       0.203665         5.5420 
  85   0.0000       0.209252         5.6940 
  86   0.0000       0.226936         6.1752 
  87   0.0000       0.230643         6.2761 
  88   0.0000       0.232794         6.3347 
  89   0.0000       0.237241         6.4557 
  90   0.0000       0.237550         6.4641 
  91   0.0000       0.238290         6.4842 
  92   0.0000       0.238304         6.4846 
  93   0.0000       0.238495         6.4898 
  94   0.0000       0.241346         6.5674 
  95   0.0000       0.242470         6.5979 
  96   0.0000       0.242797         6.6068 
  97   0.0000       0.243808         6.6343 
  98   0.0000       0.244517         6.6536 
  99   0.0000       0.246119         6.6972 
 100   0.0000       0.248598         6.7647 
 101   0.0000       0.253077         6.8866 
 102   0.0000       0.266053         7.2397 
 103   0.0000       0.267837         7.2882 
 104   0.0000       0.268242         7.2992 
 105   0.0000       0.271550         7.3892 
 106   0.0000       0.275479         7.4962 
 107   0.0000       0.290175         7.8961 
 108   0.0000       0.299326         8.1451 
 109   0.0000       0.301202         8.1961 
 110   0.0000       0.310065         8.4373 
 111   0.0000       0.310992         8.4625 
 112   0.0000       0.337157         9.1745 
 113   0.0000       0.337253         9.1771 
 114   0.0000       0.343291         9.3414 
 115   0.0000       0.357265         9.7217 
 116   0.0000       0.418868        11.3980 
 117   0.0000       0.421035        11.4569 
 118   0.0000       0.424565        11.5530 
 119   0.0000       0.426601        11.6084 
-------
TIMINGS
-------

Total SCF time: 0 days 0 hours 0 min 0 sec 

Total time                  ....       0.110 sec
Sum of individual times     ....       0.091 sec  ( 83.4%)

Fock matrix formation       ....       0.047 sec  ( 42.5%)
Diagonalization             ....       0.025 sec  ( 22.9%)
Density matrix formation    ....       0.003 sec  (  2.7%)
Population analysis         ....       0.000 sec  (  0.0%)
Initial guess               ....       0.003 sec  (  2.7%)
Orbital Transformation      ....       0.000 sec  (  0.0%)
Orbital Orthonormalization  ....       0.000 sec  (  0.0%)
DIIS solution               ....       0.005 sec  (  4.7%)
SOSCF solution              ....       0.009 sec  (  8.0%)

-------------------------   --------------------
FINAL SINGLE POINT ENERGY       -14.213925705397
-------------------------   --------------------


                            ***************************************
                            *     ORCA property calculations      *
                            ***************************************

                                    ---------------------
                                    Active property flags
                                    ---------------------
   (+) Dipole Moment


------------------------------------------------------------------------------
                       ORCA ELECTRIC PROPERTIES CALCULATION
------------------------------------------------------------------------------

Dipole Moment Calculation                       ... on
Quadrupole Moment Calculation                   ... off
Polarizability Calculation                      ... off
GBWName                                         ... /home/mattyjones/Software/morphct/tests/output_EZ/donor_polymer/chromophores/input_orca/pair/00000-00002.gbw
Electron density file                           ... /home/mattyjones/Software/morphct/tests/output_EZ/donor_polymer/chromophores/input_orca/pair/00000-00002.scfp.tmp
The origin for moment calculation is the CENTER OF MASS  = ( 1.250484,  1.184963  1.433142)

-------------
DIPOLE MOMENT
-------------
                                X             Y             Z
Electronic contribution:    130.02619     136.15962     176.57461
Nuclear contribution   :    -70.81884     -72.26704     -84.38948
                        -----------------------------------------
Total Dipole Moment    :     59.20735      63.89259      92.18513
                        -----------------------------------------
Magnitude (a.u.)       :    126.83009
Magnitude (Debye)      :    322.37646


Timings for individual modules:

Sum of individual times         ...        0.140 sec (=   0.002 min)
STO integral calculation        ...        0.020 sec (=   0.000 min)  14.3 %
SCF iterations                  ...        0.120 sec (=   0.002 min)  85.7 %
                             ****ORCA TERMINATED NORMALLY****
TOTAL RUN TIME: 0 days 0 hours 0 minutes 0 seconds 429 msec

