
                                 *****************
                                 * O   R   C   A *
                                 *****************

           --- An Ab Initio, DFT and Semiempirical electronic structure package ---

                  #######################################################
                  #                        -***-                        #
                  #  Department of molecular theory and spectroscopy    #
                  #              Directorship: Frank Neese              #
                  # Max Planck Institute for Chemical Energy Conversion #
                  #                  D-45470 Muelheim/Ruhr              #
                  #                       Germany                       #
                  #                                                     #
                  #                  All rights reserved                #
                  #                        -***-                        #
                  #######################################################


                         Program Version 4.0.1.2 - RELEASE -


 With contributions from (in alphabetic order):
   Daniel Aravena         : Magnetic Properties
   Michael Atanasov       : Ab Initio Ligand Field Theory
   Ute Becker             : Parallelization
   Martin Brehm           : Molecular dynamics
   Dmytro Bykov           : SCF Hessian
   Vijay G. Chilkuri      : MRCI spin determinant printing
   Dipayan Datta          : RHF DLPNO-CCSD density
   Achintya Kumar Dutta   : EOM-CC, STEOM-CC
   Dmitry Ganyushin       : Spin-Orbit,Spin-Spin,Magnetic field MRCI
   Yang Guo               : DLPNO-NEVPT2, CIM, IAO-localization
   Andreas Hansen         : Spin unrestricted coupled pair/coupled cluster methods
   Lee Huntington         : MR-EOM, pCC
   Robert Izsak           : Overlap fitted RIJCOSX, COSX-SCS-MP3, EOM
   Christian Kollmar      : KDIIS, OOCD, Brueckner-CCSD(T), CCSD density
   Simone Kossmann        : Meta GGA functionals, TD-DFT gradient, OOMP2, MP2 Hessian
   Martin Krupicka        : AUTO-CI
   Dagmar Lenk            : GEPOL surface
   Dimitrios Liakos       : Extrapolation schemes; parallel MDCI
   Dimitrios Manganas     : ROCIS; embedding schemes
   Dimitrios Pantazis     : SARC Basis sets
   Taras Petrenko         : DFT Hessian,TD-DFT gradient, ASA, ECA, R-Raman, ABS, FL, XAS/XES, NRVS
   Peter Pinski           : DLPNO-MP2
   Christoph Reimann      : Effective Core Potentials
   Marius Retegan         : Local ZFS, SOC
   Christoph Riplinger    : Optimizer, TS searches, QM/MM, DLPNO-CCSD(T), (RO)-DLPNO pert. Triples
   Tobias Risthaus        : Range-separated hybrids, TD-DFT gradient, RPA, STAB
   Michael Roemelt        : Restricted open shell CIS
   Masaaki Saitow         : Open-shell DLPNO
   Barbara Sandhoefer     : DKH picture change effects
   Kantharuban Sivalingam : CASSCF convergence, NEVPT2, FIC-MRCI
   Georgi Stoychev        : AutoAux
   Boris Wezisla          : Elementary symmetry handling
   Frank Wennmohs         : Technical directorship


 We gratefully acknowledge several colleagues who have allowed us to
 interface, adapt or use parts of their codes:
   Stefan Grimme, W. Hujo, H. Kruse,             : VdW corrections, initial TS optimization,
                  C. Bannwarth                     DFT functionals, gCP, sTDA/sTD-DF
   Ed Valeev                                     : LibInt (2-el integral package), F12 methods
   Garnet Chan, S. Sharma, J. Yang, R. Olivares  : DMRG
   Ulf Ekstrom                                   : XCFun DFT Library
   Mihaly Kallay                                 : mrcc  (arbitrary order and MRCC methods)
   Andreas Klamt, Michael Diedenhofen            : otool_cosmo (COSMO solvation model)
   Jiri Pittner, Ondrej Demel                    : Mk-CCSD
   Frank Weinhold                                : gennbo (NPA and NBO analysis)
   Christopher J. Cramer and Donald G. Truhlar   : smd solvation model


 Your calculation uses the libint2 library for the computation of 2-el integrals
 For citations please refer to: http://libint.valeyev.net

 This ORCA versions uses:
   CBLAS   interface :  Fast vector & matrix operations
   LAPACKE interface :  Fast linear algebra routines
   SCALAPACK package :  Parallel linear algebra routines


leaving
Your calculation utilizes the basis: def2-SVP
   F. Weigend and R. Ahlrichs, Phys. Chem. Chem. Phys. 7, 3297 (2005).

================================================================================
                                        WARNINGS
                       Please study these warnings very carefully!
================================================================================

Warning: TCutStore was < 0. Adjusted to Thresh (uncritical)

WARNING: Direct SCF is incompatible with Method<>HF and Method<>DFT
  ===> : conventional SCF is chosen

WARNING: The NDO methods need Guess=HUECKEL or Guess=HCORE or Guess=MOREAD
  ===> : Guess is set to Hueckel

WARNING: The NDO methods need %rel::SOCType==1
  ===> : %rel::SOCType is set to 1

WARNING: The NDO methods cannot have frozencore=1
  ===> : %method FrozenCore=0 end

INFO   : the flag for use of LIBINT has been found!

================================================================================
                                       INPUT FILE
================================================================================
NAME = /home/mattyjones/Software/morphct/tests/output_EZ/donor_polymer/chromophores/input_orca/pair/00009-00028.inp
|  1> # ================================================================
|  2> # Orca input file made by Matty Jones
|  3> # ================================================================
|  4> ! ZINDO/S 
|  5> ! NOPOP
|  6> ! NOMOPRINT
|  7> * xyz 0   1
|  8>  C  -16.21370  28.18717  -5.03062
|  9>  C  -15.01475  28.88341  -4.87032
| 10>  C  -14.19165  28.39214  -3.80945
| 11>  C  -14.74345  27.30249  -3.12863
| 12>  S  -16.20018  27.00837  -3.86472
| 13>  H  -14.82393  29.87139  -5.40717
| 14>  C  -12.78919  29.15924  -3.59382
| 15>  C  -12.06445  29.51786  -5.10398
| 16>  C  -10.63365  30.39157  -5.29716
| 17>  H  -10.48372  30.98382  -4.30983
| 18>  H  -10.83681  31.15936  -6.14443
| 19>  H  -11.88533  28.49069  -5.60250
| 20>  H  -12.83226  30.10860  -5.73031
| 21>  H  -12.95755  30.15768  -3.03254
| 22>  H  -12.04529  28.50410  -2.99185
| 23>  C  -9.25082  29.61255  -5.63942
| 24>  C  -7.98867  30.70671  -5.92744
| 25>  C  -7.16107  31.11989  -4.52609
| 26>  H  -6.54733  32.08304  -4.71162
| 27>  H  -6.44959  30.25448  -4.23626
| 28>  H  -7.91984  31.30194  -3.67104
| 29>  H  -7.25050  30.22557  -6.66857
| 30>  H  -8.42733  31.66652  -6.39087
| 31>  H  -9.38642  28.97593  -6.59482
| 32>  H  -8.94738  28.92232  -4.76623
| 33>  C  9.18375  -33.64768  3.11473
| 34>  C  9.95059  -32.71480  3.81443
| 35>  C  9.18135  -31.72875  4.50743
| 36>  C  7.80013  -31.88380  4.35418
| 37>  S  7.60606  -33.21403  3.38297
| 38>  H  11.08848  -32.75737  3.88355
| 39>  C  9.87358  -30.56313  5.39317
| 40>  C  11.26482  -29.73844  4.89866
| 41>  C  11.75694  -28.52057  5.98142
| 42>  H  11.44818  -28.84940  7.04640
| 43>  H  11.18244  -27.55571  5.70857
| 44>  H  12.11921  -30.50578  4.81604
| 45>  H  11.06459  -29.25553  3.87582
| 46>  H  9.09833  -29.70086  5.54618
| 47>  H  10.15453  -30.99904  6.43364
| 48>  C  13.36013  -28.23430  5.94981
| 49>  C  13.94142  -27.55482  4.51779
| 50>  C  13.94907  -25.87928  4.42253
| 51>  H  14.76605  -25.45621  5.12408
| 52>  H  12.91298  -25.47083  4.73537
| 53>  H  14.17616  -25.56587  3.33090
| 54>  H  15.02921  -27.91803  4.38150
| 55>  H  13.29795  -27.95823  3.64949
| 56>  H  13.93226  -29.22348  6.13006
| 57>  H  13.62626  -27.49900  6.80490
| 58>  H  -16.97284  28.37286  -5.74674
| 59>  H  -14.31943  26.77493  -2.31285
| 60>  H  9.53574  -34.46176  2.53424
| 61>  H  7.03692  -31.27796  4.77140
| 62> *
| 63> 
| 64>                          ****END OF INPUT****
================================================================================

                       ****************************
                       * Single Point Calculation *
                       ****************************

---------------------------------
CARTESIAN COORDINATES (ANGSTROEM)
---------------------------------
  C    -16.213700   28.187170   -5.030620
  C    -15.014750   28.883410   -4.870320
  C    -14.191650   28.392140   -3.809450
  C    -14.743450   27.302490   -3.128630
  S    -16.200180   27.008370   -3.864720
  H    -14.823930   29.871390   -5.407170
  C    -12.789190   29.159240   -3.593820
  C    -12.064450   29.517860   -5.103980
  C    -10.633650   30.391570   -5.297160
  H    -10.483720   30.983820   -4.309830
  H    -10.836810   31.159360   -6.144430
  H    -11.885330   28.490690   -5.602500
  H    -12.832260   30.108600   -5.730310
  H    -12.957550   30.157680   -3.032540
  H    -12.045290   28.504100   -2.991850
  C     -9.250820   29.612550   -5.639420
  C     -7.988670   30.706710   -5.927440
  C     -7.161070   31.119890   -4.526090
  H     -6.547330   32.083040   -4.711620
  H     -6.449590   30.254480   -4.236260
  H     -7.919840   31.301940   -3.671040
  H     -7.250500   30.225570   -6.668570
  H     -8.427330   31.666520   -6.390870
  H     -9.386420   28.975930   -6.594820
  H     -8.947380   28.922320   -4.766230
  C      9.183750  -33.647680    3.114730
  C      9.950590  -32.714800    3.814430
  C      9.181350  -31.728750    4.507430
  C      7.800130  -31.883800    4.354180
  S      7.606060  -33.214030    3.382970
  H     11.088480  -32.757370    3.883550
  C      9.873580  -30.563130    5.393170
  C     11.264820  -29.738440    4.898660
  C     11.756940  -28.520570    5.981420
  H     11.448180  -28.849400    7.046400
  H     11.182440  -27.555710    5.708570
  H     12.119210  -30.505780    4.816040
  H     11.064590  -29.255530    3.875820
  H      9.098330  -29.700860    5.546180
  H     10.154530  -30.999040    6.433640
  C     13.360130  -28.234300    5.949810
  C     13.941420  -27.554820    4.517790
  C     13.949070  -25.879280    4.422530
  H     14.766050  -25.456210    5.124080
  H     12.912980  -25.470830    4.735370
  H     14.176160  -25.565870    3.330900
  H     15.029210  -27.918030    4.381500
  H     13.297950  -27.958230    3.649490
  H     13.932260  -29.223480    6.130060
  H     13.626260  -27.499000    6.804900
  H    -16.972840   28.372860   -5.746740
  H    -14.319430   26.774930   -2.312850
  H      9.535740  -34.461760    2.534240
  H      7.036920  -31.277960    4.771400

----------------------------
CARTESIAN COORDINATES (A.U.)
----------------------------
  NO LB      ZA    FRAG     MASS         X           Y           Z
   0 C     4.0000    0    12.011  -30.639453   53.266032   -9.506494
   1 C     4.0000    0    12.011  -28.373765   54.581735   -9.203571
   2 C     4.0000    0    12.011  -26.818332   53.653369   -7.198817
   3 C     4.0000    0    12.011  -27.861083   51.594229   -5.912254
   4 S     6.0000    0    32.060  -30.613904   51.038423   -7.303262
   5 H     1.0000    0     1.008  -28.013168   56.448746  -10.218070
   6 C     4.0000    0    12.011  -24.168067   55.102978   -6.791336
   7 C     4.0000    0    12.011  -22.798506   55.780671   -9.645124
   8 C     4.0000    0    12.011  -20.094686   57.431744  -10.010182
   9 H     1.0000    0     1.008  -19.811360   58.550934   -8.144398
  10 H     1.0000    0     1.008  -20.478603   58.882657  -11.611290
  11 H     1.0000    0     1.008  -22.460019   53.839601  -10.587191
  12 H     1.0000    0     1.008  -24.249457   56.897008  -10.828717
  13 H     1.0000    0     1.008  -24.486221   56.989756   -5.730670
  14 H     1.0000    0     1.008  -22.762299   53.864943   -5.653777
  15 C     4.0000    0    12.011  -17.481516   55.959610  -10.656959
  16 C     4.0000    0    12.011  -15.096398   58.027272  -11.201238
  17 C     4.0000    0    12.011  -13.532461   58.808069   -8.553071
  18 H     1.0000    0     1.008  -12.372661   60.628159   -8.903671
  19 H     1.0000    0     1.008  -12.187959   57.172682   -8.005371
  20 H     1.0000    0     1.008  -14.966329   59.152094   -6.937260
  21 H     1.0000    0     1.008  -13.701459   57.118050  -12.601771
  22 H     1.0000    0     1.008  -15.925346   59.841050  -12.076994
  23 H     1.0000    0     1.008  -17.737763   54.756572  -12.462404
  24 H     1.0000    0     1.008  -16.908098   54.655264   -9.006869
  25 C     4.0000    0    12.011   17.354772  -63.584900    5.885987
  26 C     4.0000    0    12.011   18.803890  -61.822013    7.208228
  27 C     4.0000    0    12.011   17.350237  -59.958648    8.517808
  28 C     4.0000    0    12.011   14.740110  -60.251650    8.228208
  29 S     6.0000    0    32.060   14.373370  -62.765421    6.392887
  30 H     1.0000    0     1.008   20.954190  -61.902458    7.338846
  31 C     4.0000    0    12.011   18.658362  -57.755945   10.191614
  32 C     4.0000    0    12.011   21.287425  -56.197507    9.257126
  33 C     4.0000    0    12.011   22.217397  -53.896066   11.303246
  34 H     1.0000    0     1.008   21.633925  -54.517465   13.315766
  35 H     1.0000    0     1.008   21.131749  -52.072745   10.787634
  36 H     1.0000    0     1.008   22.901988  -57.647570    9.100997
  37 H     1.0000    0     1.008   20.909045  -55.284940    7.324238
  38 H     1.0000    0     1.008   17.193352  -56.126491   10.480761
  39 H     1.0000    0     1.008   19.189281  -58.579696   12.157818
  40 C     4.0000    0    12.011   25.246987  -53.355095   11.243511
  41 C     4.0000    0    12.011   26.345466  -52.071063    8.537386
  42 C     4.0000    0    12.011   26.359922  -48.904752    8.357371
  43 H     1.0000    0     1.008   27.903791  -48.105265    9.683108
  44 H     1.0000    0     1.008   24.401996  -48.132893    8.948552
  45 H     1.0000    0     1.008   26.789060  -48.312493    6.294489
  46 H     1.0000    0     1.008   28.401091  -52.757431    8.279835
  47 H     1.0000    0     1.008   25.129484  -52.833398    6.896537
  48 H     1.0000    0     1.008   26.328156  -55.224374   11.584135
  49 H     1.0000    0     1.008   25.749900  -51.965579   12.859397
  50 H     1.0000    0     1.008  -32.074019   53.616935  -10.859765
  51 H     1.0000    0     1.008  -27.059801   50.597285   -4.370653
  52 H     1.0000    0     1.008   18.019937  -65.123288    4.789020
  53 H     1.0000    0     1.008   13.297852  -59.106778    9.016639

--------------------------------
INTERNAL COORDINATES (ANGSTROEM)
--------------------------------
 C      0   0   0     0.000000000000     0.00000000     0.00000000
 C      1   0   0     1.395681672195     0.00000000     0.00000000
 C      2   1   0     1.429784941801   114.10119169     0.00000000
 C      3   2   1     1.398333377596   113.69269747     0.00000000
 S      1   2   3     1.658033485910   105.47973610     0.00000000
 H      2   1   3     1.140493171966   121.45368496   191.27326839
 C      3   2   1     1.613019763828   115.86917051   179.53913161
 C      7   3   2     1.713020606298   110.46037432   318.87204200
 C      8   7   3     1.687565203629   124.61152458   176.34687464
 H      9   8   7     1.161059686795   106.03554310   340.39627667
 H      9   8   7     1.161310433347   106.11041975   225.92998144
 H      8   7   3     1.155718120348   105.05677798   298.83768346
 H      8   7   3     1.153600976335   107.71322417    54.82871328
 H      7   3   2     1.157697180441   110.39654828    78.20579930
 H      7   3   2     1.159725618627   111.00492713   199.44169116
 C      9   8   7     1.623648015088   119.85589292   103.19622385
 C     16   9   8     1.695041075756   111.11738064   174.72925173
 C     17  16   9     1.679113246598   112.58376234    89.16354820
 H     18  17  16     1.157046278677   109.41771434   197.19558893
 H     18  17  16     1.157212032170   109.14962839    77.18488326
 H     18  17  16     1.157577046205   109.39572202   317.25708039
 H     17  16   9     1.151374971675   108.48256472   209.76537118
 H     17  16   9     1.152573293374   108.81272714   328.77794365
 H     16   9   8     1.156054299936   109.78713801    55.81893587
 H     16   9   8     1.153669823910   110.58031021   295.40962754
 C     25  16   9    65.618993482059   137.22861308   130.09760247
 C     26  25  16     1.395667858052    64.82871650   135.22469315
 C     27  26  25     1.429781025227   114.10161126    45.95354517
 C     28  27  26     1.398318545039   113.69344244     0.00000000
 S     26  25  16     1.658044256406    60.47004061   262.46289173
 H     27  26  25     1.140781938584   123.60632065   222.70886065
 C     28  27  26     1.619378802165   122.10902545   179.34720129
 C     32  28  27     1.691213314103   122.86825980    41.05590129
 C     33  32  28     1.702280426046   113.62202478   177.81529117
 H     34  33  32     1.156565738253   107.76472848    30.76222377
 H     34  33  32     1.155617666921   107.66425338   273.57065406
 H     33  32  28     1.151355293600   107.84494944   297.41058937
 H     33  32  28     1.148693077632   108.78214682    56.94930797
 H     32  28  27     1.169587181659   108.59503678   160.97630677
 H     32  28  27     1.162552472579   108.84054426   279.07698145
 C     34  33  32     1.628854775939   113.44901777   151.91796910
 C     41  34  33     1.688274982016   115.21900804    67.20267393
 C     42  41  34     1.678263174148   116.84201604    89.19531350
 H     43  42  41     1.156986148491   109.50404061    70.93075948
 H     43  42  41     1.156798494207   109.45587206   310.47096271
 H     43  42  41     1.158210582364   108.93838893   190.68374020
 H     42  41  34     1.154895472456   107.32713616   210.09971809
 H     42  41  34     1.153576247588   107.79731722   327.45179821
 H     41  34  33     1.156849113670   109.47927596   305.50869838
 H     41  34  33     1.158736456232   108.86008284   187.29104904
 H      1   2   3     1.060001023632   127.25942382   180.00030142
 H      4   3   2     1.060004491689   127.20582713   180.00036059
 H     26  25  16     1.059996154050   139.31445592    16.57097114
 H     29  28  27     1.060001951932   127.20666464   180.00007171

---------------------------
INTERNAL COORDINATES (A.U.)
---------------------------
 C      0   0   0     0.000000000000     0.00000000     0.00000000
 C      1   0   0     2.637456130581     0.00000000     0.00000000
 C      2   1   0     2.701901970408   114.10119169     0.00000000
 C      3   2   1     2.642467127578   113.69269747     0.00000000
 S      1   2   3     3.133229209241   105.47973610     0.00000000
 H      2   1   3     2.155219752622   121.45368496   191.27326839
 C      3   2   1     3.048165602237   115.86917051   179.53913161
 C      7   3   2     3.237139807666   110.46037432   318.87204200
 C      8   7   3     3.189036067994   124.61152458   176.34687464
 H      9   8   7     2.194084833179   106.03554310   340.39627667
 H      9   8   7     2.194558675491   106.11041975   225.92998144
 H      8   7   3     2.183990735467   105.05677798   298.83768346
 H      8   7   3     2.179989913096   107.71322417    54.82871328
 H      7   3   2     2.187730617045   110.39654828    78.20579930
 H      7   3   2     2.191563809698   111.00492713   199.44169116
 C      9   8   7     3.068250086402   119.85589292   103.19622385
 C     16   9   8     3.203163418926   111.11738064   174.72925173
 C     17  16   9     3.173064183909   112.58376234    89.16354820
 H     18  17  16     2.186500590972   109.41771434   197.19558893
 H     18  17  16     2.186813819681   109.14962839    77.18488326
 H     18  17  16     2.187503596240   109.39572202   317.25708039
 H     17  16   9     2.175783373917   108.48256472   209.76537118
 H     17  16   9     2.178047873749   108.81272714   328.77794365
 H     16   9   8     2.184626022821   109.78713801    55.81893587
 H     16   9   8     2.180120016159   110.58031021   295.40962754
 C     25  16   9   124.001926864655   137.22861308   130.09760247
 C     26  25  16     2.637430025635    64.82871650   135.22469315
 C     27  26  25     2.701894569157   114.10161126    45.95354517
 C     28  27  26     2.642439098107   113.69344244     0.00000000
 S     26  25  16     3.133249562528    60.47004061   262.46289173
 H     27  26  25     2.155765442448   123.60632065   222.70886065
 C     28  27  26     3.060182443169   122.10902545   179.34720129
 C     32  28  27     3.195929997696   122.86825980    41.05590129
 C     33  32  28     3.216843808362   113.62202478   177.81529117
 H     34  33  32     2.185592501174   107.76472848    30.76222377
 H     34  33  32     2.183800906002   107.66425338   273.57065406
 H     33  32  28     2.175746187744   107.84494944   297.41058937
 H     33  32  28     2.170715328656   108.78214682    56.94930797
 H     32  28  27     2.210199463079   108.59503678   160.97630677
 H     32  28  27     2.196905789488   108.84054426   279.07698145
 C     34  33  32     3.078089438455   113.44901777   151.91796910
 C     41  34  33     3.190377354760   115.21900804    67.20267393
 C     42  41  34     3.171457779784   116.84201604    89.19531350
 H     43  42  41     2.186386961388   109.50404061    70.93075948
 H     43  42  41     2.186032346184   109.45587206   310.47096271
 H     43  42  41     2.188700806077   108.93838893   190.68374020
 H     42  41  34     2.182436156248   107.32713616   210.09971809
 H     42  41  34     2.179943182539   107.79731722   327.45179821
 H     41  34  33     2.186128003107   109.47927596   305.50869838
 H     41  34  33     2.189694563668   108.86008284   187.29104904
 H      1   2   3     2.003111636340   127.25942382   180.00030142
 H      4   3   2     2.003118190018   127.20582713   180.00036059
 H     26  25  16     2.003102434164   139.31445592    16.57097114
 H     29  28  27     2.003113390574   127.20666464   180.00007171

----------------------------
SLATER BASIS SET DIM= 120
----------------------------
  0 C     2 shells
 l=0 nsto= 1
    2       1.625000000000        1.000000000000
 l=1 nsto= 1
    2       1.625000000000        1.000000000000
  1 C     2 shells
 l=0 nsto= 1
    2       1.625000000000        1.000000000000
 l=1 nsto= 1
    2       1.625000000000        1.000000000000
  2 C     2 shells
 l=0 nsto= 1
    2       1.625000000000        1.000000000000
 l=1 nsto= 1
    2       1.625000000000        1.000000000000
  3 C     2 shells
 l=0 nsto= 1
    2       1.625000000000        1.000000000000
 l=1 nsto= 1
    2       1.625000000000        1.000000000000
  4 S     2 shells
 l=0 nsto= 1
    3       1.925000000000        1.000000000000
 l=1 nsto= 1
    3       1.925000000000        1.000000000000
  5 H     1 shells
 l=0 nsto= 1
    1       1.200000000000        1.000000000000
  6 C     2 shells
 l=0 nsto= 1
    2       1.625000000000        1.000000000000
 l=1 nsto= 1
    2       1.625000000000        1.000000000000
  7 C     2 shells
 l=0 nsto= 1
    2       1.625000000000        1.000000000000
 l=1 nsto= 1
    2       1.625000000000        1.000000000000
  8 C     2 shells
 l=0 nsto= 1
    2       1.625000000000        1.000000000000
 l=1 nsto= 1
    2       1.625000000000        1.000000000000
  9 H     1 shells
 l=0 nsto= 1
    1       1.200000000000        1.000000000000
 10 H     1 shells
 l=0 nsto= 1
    1       1.200000000000        1.000000000000
 11 H     1 shells
 l=0 nsto= 1
    1       1.200000000000        1.000000000000
 12 H     1 shells
 l=0 nsto= 1
    1       1.200000000000        1.000000000000
 13 H     1 shells
 l=0 nsto= 1
    1       1.200000000000        1.000000000000
 14 H     1 shells
 l=0 nsto= 1
    1       1.200000000000        1.000000000000
 15 C     2 shells
 l=0 nsto= 1
    2       1.625000000000        1.000000000000
 l=1 nsto= 1
    2       1.625000000000        1.000000000000
 16 C     2 shells
 l=0 nsto= 1
    2       1.625000000000        1.000000000000
 l=1 nsto= 1
    2       1.625000000000        1.000000000000
 17 C     2 shells
 l=0 nsto= 1
    2       1.625000000000        1.000000000000
 l=1 nsto= 1
    2       1.625000000000        1.000000000000
 18 H     1 shells
 l=0 nsto= 1
    1       1.200000000000        1.000000000000
 19 H     1 shells
 l=0 nsto= 1
    1       1.200000000000        1.000000000000
 20 H     1 shells
 l=0 nsto= 1
    1       1.200000000000        1.000000000000
 21 H     1 shells
 l=0 nsto= 1
    1       1.200000000000        1.000000000000
 22 H     1 shells
 l=0 nsto= 1
    1       1.200000000000        1.000000000000
 23 H     1 shells
 l=0 nsto= 1
    1       1.200000000000        1.000000000000
 24 H     1 shells
 l=0 nsto= 1
    1       1.200000000000        1.000000000000
 25 C     2 shells
 l=0 nsto= 1
    2       1.625000000000        1.000000000000
 l=1 nsto= 1
    2       1.625000000000        1.000000000000
 26 C     2 shells
 l=0 nsto= 1
    2       1.625000000000        1.000000000000
 l=1 nsto= 1
    2       1.625000000000        1.000000000000
 27 C     2 shells
 l=0 nsto= 1
    2       1.625000000000        1.000000000000
 l=1 nsto= 1
    2       1.625000000000        1.000000000000
 28 C     2 shells
 l=0 nsto= 1
    2       1.625000000000        1.000000000000
 l=1 nsto= 1
    2       1.625000000000        1.000000000000
 29 S     2 shells
 l=0 nsto= 1
    3       1.925000000000        1.000000000000
 l=1 nsto= 1
    3       1.925000000000        1.000000000000
 30 H     1 shells
 l=0 nsto= 1
    1       1.200000000000        1.000000000000
 31 C     2 shells
 l=0 nsto= 1
    2       1.625000000000        1.000000000000
 l=1 nsto= 1
    2       1.625000000000        1.000000000000
 32 C     2 shells
 l=0 nsto= 1
    2       1.625000000000        1.000000000000
 l=1 nsto= 1
    2       1.625000000000        1.000000000000
 33 C     2 shells
 l=0 nsto= 1
    2       1.625000000000        1.000000000000
 l=1 nsto= 1
    2       1.625000000000        1.000000000000
 34 H     1 shells
 l=0 nsto= 1
    1       1.200000000000        1.000000000000
 35 H     1 shells
 l=0 nsto= 1
    1       1.200000000000        1.000000000000
 36 H     1 shells
 l=0 nsto= 1
    1       1.200000000000        1.000000000000
 37 H     1 shells
 l=0 nsto= 1
    1       1.200000000000        1.000000000000
 38 H     1 shells
 l=0 nsto= 1
    1       1.200000000000        1.000000000000
 39 H     1 shells
 l=0 nsto= 1
    1       1.200000000000        1.000000000000
 40 C     2 shells
 l=0 nsto= 1
    2       1.625000000000        1.000000000000
 l=1 nsto= 1
    2       1.625000000000        1.000000000000
 41 C     2 shells
 l=0 nsto= 1
    2       1.625000000000        1.000000000000
 l=1 nsto= 1
    2       1.625000000000        1.000000000000
 42 C     2 shells
 l=0 nsto= 1
    2       1.625000000000        1.000000000000
 l=1 nsto= 1
    2       1.625000000000        1.000000000000
 43 H     1 shells
 l=0 nsto= 1
    1       1.200000000000        1.000000000000
 44 H     1 shells
 l=0 nsto= 1
    1       1.200000000000        1.000000000000
 45 H     1 shells
 l=0 nsto= 1
    1       1.200000000000        1.000000000000
 46 H     1 shells
 l=0 nsto= 1
    1       1.200000000000        1.000000000000
 47 H     1 shells
 l=0 nsto= 1
    1       1.200000000000        1.000000000000
 48 H     1 shells
 l=0 nsto= 1
    1       1.200000000000        1.000000000000
 49 H     1 shells
 l=0 nsto= 1
    1       1.200000000000        1.000000000000
 50 H     1 shells
 l=0 nsto= 1
    1       1.200000000000        1.000000000000
 51 H     1 shells
 l=0 nsto= 1
    1       1.200000000000        1.000000000000
 52 H     1 shells
 l=0 nsto= 1
    1       1.200000000000        1.000000000000
 53 H     1 shells
 l=0 nsto= 1
    1       1.200000000000        1.000000000000
------------------------------------------------------------------------------
                           ORCA NDO INTEGRAL CALCULATION
------------------------------------------------------------------------------

--------------
NDO PARAMETERS
--------------

Gamma integral treatment              ... Mataga-Nishimoto
Nuclear repulsuion treatment          ... Direct (ZA*ZB/RAB)
Interaction factors:
s-s (sigma) =    1.0000
s-p (sigma) =    1.0000
s-d (sigma) =    1.0000
p-p (sigma) =    1.2670  p-p(pi) =    0.5850
p-d (sigma) =    1.0000  p-d(pi) =    1.0000
d-d (sigma) =    1.0000  d-d(pi) =    1.0000 d-d (delta) =    1.0000

fGamma parameter for Mataga-Nishimoto gamma integrals:    1.2000

--------------------------
Parameters for Element H :
--------------------------
 One-electron parameters (in eV)
  U(s)  =   -13.060000 Beta(s) =    12.000000 Neff(s) =     1.000000
 One-center electron repulsion parameters (in eV)
  G(s,s)=    12.850000
--------------------------
Parameters for Element C :
--------------------------
 One-electron parameters (in eV)
  U(s)  =   -50.870766 Beta(s) =    17.000000 Neff(s) =     2.000000
  U(p)  =   -41.599980 Beta(p) =    17.000000 Neff(p) =     2.000000 
 One-center electron repulsion parameters (in eV)
  G(s,s)=    11.110000
  G(s,p)=    11.110000 G(p,p)  =    11.110000
 Slater-Condon parameters (in eV)
 F2(p,p)=     4.5098 G1(s,p)=    6.8977
--------------------------
Parameters for Element S :
--------------------------
 One-electron parameters (in eV)
  U(s)  =   -69.509597 Beta(s) =    15.000000 Neff(s) =     2.000000
  U(p)  =   -60.725746 Beta(p) =    15.000000 Neff(p) =     4.000000 
 One-center electron repulsion parameters (in eV)
  G(s,s)=    10.090000
  G(s,p)=    10.090000 G(p,p)  =    10.090000
 Slater-Condon parameters (in eV)
 F2(p,p)=     4.5377 G1(s,p)=    3.0756

 Number of atoms                    ....   54
 Number of basis functions          ....  120

 Overlap integrals                  .... done
 One electron matrix                .... done
 Nuclear repulsion                  .... done
 Integral list                      .... done
 Electron-electron repulsion        .... done
-------------------------------------------------------------------------------
                                 ORCA SCF
-------------------------------------------------------------------------------

------------
SCF SETTINGS
------------
Hamiltonian:
 ZDO-Hamiltonian        Method          .... INDO


General Settings:
 Integral files         IntName         .... /home/mattyjones/Software/morphct/tests/output_EZ/donor_polymer/chromophores/input_orca/pair/00009-00028
 Hartree-Fock type      HFTyp           .... RHF
 Total Charge           Charge          ....    0
 Multiplicity           Mult            ....    1
 Number of Electrons    NEL             ....  124
 Basis Dimension        Dim             ....  120
 Nuclear Repulsion      ENuc            ....    614.4534721612 Eh

Convergence Acceleration:
 DIIS                   CNVDIIS         .... on
   Start iteration      DIISMaxIt       ....    12
   Startup error        DIISStart       ....  0.200000
   # of expansion vecs  DIISMaxEq       ....     5
   Bias factor          DIISBfac        ....   1.050
   Max. coefficient     DIISMaxC        ....  10.000
 Newton-Raphson         CNVNR           .... off
 SOSCF                  CNVSOSCF        .... on
   Start iteration      SOSCFMaxIt      ....   150
   Startup grad/error   SOSCFStart      ....  0.003300
 Level Shifting         CNVShift        .... on
   Level shift para.    LevelShift      ....    0.2500
   Turn off err/grad.   ShiftErr        ....    0.0010
 Zerner damping         CNVZerner       .... off
 Static damping         CNVDamp         .... on
   Fraction old density DampFac         ....    0.7000
   Max. Damping (<1)    DampMax         ....    0.9800
   Min. Damping (>=0)   DampMin         ....    0.0000
   Turn off err/grad.   DampErr         ....    0.1000
 Fernandez-Rico         CNVRico         .... off

SCF Procedure:
 Maximum # iterations   MaxIter         ....   125
 SCF integral mode      SCFMode         .... Conventional
 Integral Buffer length BufferLength    .... 1048576
 Integral index format  IndFormat       ....     0
 Integral value format  ValFormat       ....     0
 Integral Storage       Thresh          ....  1.000e-08 Eh

Convergence Tolerance:
 Convergence Check Mode ConvCheckMode   .... Total+1el-Energy
 Convergence forced     ConvForced      .... 0
 Energy Change          TolE            ....  1.000e-06 Eh
 1-El. energy change                    ....  1.000e-03 Eh
 Orbital Gradient       TolG            ....  5.000e-05
 Orbital Rotation angle TolX            ....  5.000e-05
 DIIS Error             TolErr          ....  1.000e-06


Diagonalization of the overlap matrix:
Smallest eigenvalue                        ... 1.696e-01
Time for diagonalization                   ...    0.003 sec
Threshold for overlap eigenvalues          ... 1.000e-08
Number of eigenvalues below threshold      ... 0
Time for construction of square roots      ...    0.000 sec
Total time needed                          ...    0.003 sec

-------------------------------
INITIAL GUESS: EXTENDED HUECKEL
-------------------------------
EHT matrix was read from disk
EHT matrix was diagonalized
Initial density was built
                      ------------------
                      INITIAL GUESS DONE
                      ------------------

 InCore treatment chosen:
   Memory dedicated               ...    1024 MB
   Memory needed                  ...      0 MB
   Number of tiny    integrals    ...       0
   Number of small   integrals    ...       0
   Number of regular integrals    ...    7392

--------------
SCF ITERATIONS
--------------
ITER       Energy         Delta-E        Max-DP      RMS-DP      [F,P]     Damp
  0    -20.0242738278   0.000000000000 0.04133562  0.00144361  0.1102149 0.7000
  1    -20.0659129689  -0.041639141153 0.03928647  0.00135893  0.0754131 0.7000
                               ***Turning on DIIS***
  2    -20.0967204189  -0.030807449945 0.10040508  0.00348562  0.0460498 0.0000
  3    -20.1774552618  -0.080734842938 0.01838442  0.00071897  0.0208705 0.0000
  4    -20.1623919895   0.015063272340 0.01113649  0.00049357  0.0068896 0.0000
  5    -20.1793441430  -0.016952153566 0.00784989  0.00033376  0.0039763 0.0000
  6    -20.1818967262  -0.002552583197 0.00589600  0.00023748  0.0021390 0.0000
                      *** Initiating the SOSCF procedure ***
                           *** Shutting down DIIS ***
                      *** Re-Reading the Fockian *** 
                      *** Removing any level shift *** 
ITER      Energy       Delta-E        Grad      Rot      Max-DP    RMS-DP
  7    -20.17776197   0.0041347536  0.003016  0.003016  0.003505  0.000133
  8    -20.17575562   0.0020063522  0.000809  0.002230  0.001737  0.000062
  9    -20.17577008  -0.0000144613  0.000355  0.002177  0.001942  0.000065
 10    -20.17577537  -0.0000052895  0.000029  0.000083  0.000113  0.000004
                 **** Energy Check signals convergence ****
              ***Rediagonalizing the Fockian in SOSCF/NRSCF***

               *****************************************************
               *                     SUCCESS                       *
               *           SCF CONVERGED AFTER  11 CYCLES          *
               *****************************************************


----------------
TOTAL SCF ENERGY
----------------

Total Energy       :          -20.17577542 Eh            -549.01076 eV

Components:
Nuclear Repulsion  :          614.45347216 Eh           16720.12901 eV
Electronic Energy  :         -634.62924758 Eh          -17269.13977 eV
One Electron Energy:        -1178.79198779 Eh          -32076.56073 eV
Two Electron Energy:          544.16274021 Eh           14807.42096 eV


---------------
SCF CONVERGENCE
---------------

  Last Energy change         ...   -4.9259e-08  Tolerance :   1.0000e-06
  Last MAX-Density change    ...    4.7874e-05  Tolerance :   1.0000e-05
  Last RMS-Density change    ...    1.4088e-06  Tolerance :   1.0000e-06
  Last Orbital Gradient      ...    1.1359e-05  Tolerance :   5.0000e-05
  Last Orbital Rotation      ...    2.3351e-05  Tolerance :   5.0000e-05

             **** THE GBW FILE WAS UPDATED (/home/mattyjones/Software/morphct/tests/output_EZ/donor_polymer/chromophores/input_orca/pair/00009-00028.gbw) ****
             **** DENSITY FILE WAS UPDATED (/home/mattyjones/Software/morphct/tests/output_EZ/donor_polymer/chromophores/input_orca/pair/00009-00028.scfp.tmp) ****
             **** ENERGY FILE WAS UPDATED (/home/mattyjones/Software/morphct/tests/output_EZ/donor_polymer/chromophores/input_orca/pair/00009-00028.en.tmp) ****
----------------
ORBITAL ENERGIES
----------------

  NO   OCC          E(Eh)            E(eV) 
   0   2.0000      -1.561149       -42.4810 
   1   2.0000      -1.555850       -42.3368 
   2   2.0000      -1.407108       -38.2894 
   3   2.0000      -1.402723       -38.1700 
   4   2.0000      -1.297933       -35.3185 
   5   2.0000      -1.289081       -35.0777 
   6   2.0000      -1.179797       -32.1039 
   7   2.0000      -1.179371       -32.0923 
   8   2.0000      -1.121315       -30.5125 
   9   2.0000      -1.114486       -30.3267 
  10   2.0000      -1.033178       -28.1142 
  11   2.0000      -1.030522       -28.0419 
  12   2.0000      -0.954414       -25.9709 
  13   2.0000      -0.948756       -25.8170 
  14   2.0000      -0.923567       -25.1315 
  15   2.0000      -0.901006       -24.5176 
  16   2.0000      -0.864607       -23.5272 
  17   2.0000      -0.841354       -22.8944 
  18   2.0000      -0.838572       -22.8187 
  19   2.0000      -0.831711       -22.6320 
  20   2.0000      -0.775762       -21.1096 
  21   2.0000      -0.773197       -21.0397 
  22   2.0000      -0.734668       -19.9913 
  23   2.0000      -0.724554       -19.7161 
  24   2.0000      -0.710619       -19.3369 
  25   2.0000      -0.686748       -18.6874 
  26   2.0000      -0.682835       -18.5809 
  27   2.0000      -0.673899       -18.3377 
  28   2.0000      -0.642679       -17.4882 
  29   2.0000      -0.638204       -17.3664 
  30   2.0000      -0.623725       -16.9724 
  31   2.0000      -0.618534       -16.8312 
  32   2.0000      -0.591516       -16.0960 
  33   2.0000      -0.584458       -15.9039 
  34   2.0000      -0.578297       -15.7363 
  35   2.0000      -0.576402       -15.6847 
  36   2.0000      -0.567658       -15.4468 
  37   2.0000      -0.565440       -15.3864 
  38   2.0000      -0.553693       -15.0667 
  39   2.0000      -0.548861       -14.9353 
  40   2.0000      -0.536482       -14.5984 
  41   2.0000      -0.536160       -14.5896 
  42   2.0000      -0.523569       -14.2470 
  43   2.0000      -0.509839       -13.8734 
  44   2.0000      -0.509693       -13.8694 
  45   2.0000      -0.504145       -13.7185 
  46   2.0000      -0.495002       -13.4697 
  47   2.0000      -0.491317       -13.3694 
  48   2.0000      -0.488635       -13.2964 
  49   2.0000      -0.486011       -13.2250 
  50   2.0000      -0.483004       -13.1432 
  51   2.0000      -0.480982       -13.0882 
  52   2.0000      -0.469816       -12.7844 
  53   2.0000      -0.468962       -12.7611 
  54   2.0000      -0.465915       -12.6782 
  55   2.0000      -0.459623       -12.5070 
  56   2.0000      -0.439173       -11.9505 
  57   2.0000      -0.435004       -11.8371 
  58   2.0000      -0.357178        -9.7193 
  59   2.0000      -0.354605        -9.6493 
  60   2.0000      -0.305057        -8.3010 
  61   2.0000      -0.304847        -8.2953 
  62   0.0000       0.007784         0.2118 
  63   0.0000       0.007989         0.2174 
  64   0.0000       0.069289         1.8855 
  65   0.0000       0.070656         1.9227 
  66   0.0000       0.073853         2.0096 
  67   0.0000       0.075569         2.0563 
  68   0.0000       0.089018         2.4223 
  69   0.0000       0.090827         2.4715 
  70   0.0000       0.102926         2.8008 
  71   0.0000       0.105227         2.8634 
  72   0.0000       0.107903         2.9362 
  73   0.0000       0.108245         2.9455 
  74   0.0000       0.122682         3.3383 
  75   0.0000       0.125526         3.4157 
  76   0.0000       0.141248         3.8436 
  77   0.0000       0.143879         3.9151 
  78   0.0000       0.155221         4.2238 
  79   0.0000       0.157770         4.2931 
  80   0.0000       0.164771         4.4836 
  81   0.0000       0.165740         4.5100 
  82   0.0000       0.169332         4.6078 
  83   0.0000       0.173470         4.7204 
  84   0.0000       0.203707         5.5431 
  85   0.0000       0.204814         5.5733 
  86   0.0000       0.234841         6.3903 
  87   0.0000       0.235273         6.4021 
  88   0.0000       0.236345         6.4313 
  89   0.0000       0.237237         6.4555 
  90   0.0000       0.237264         6.4563 
  91   0.0000       0.237846         6.4721 
  92   0.0000       0.238684         6.4949 
  93   0.0000       0.240212         6.5365 
  94   0.0000       0.240670         6.5490 
  95   0.0000       0.241258         6.5650 
  96   0.0000       0.243004         6.6125 
  97   0.0000       0.243423         6.6239 
  98   0.0000       0.244165         6.6441 
  99   0.0000       0.244308         6.6479 
 100   0.0000       0.248467         6.7611 
 101   0.0000       0.256001         6.9661 
 102   0.0000       0.262200         7.1348 
 103   0.0000       0.265207         7.2166 
 104   0.0000       0.267115         7.2686 
 105   0.0000       0.267242         7.2720 
 106   0.0000       0.279937         7.6175 
 107   0.0000       0.283696         7.7198 
 108   0.0000       0.302619         8.2347 
 109   0.0000       0.305410         8.3106 
 110   0.0000       0.310160         8.4399 
 111   0.0000       0.310438         8.4474 
 112   0.0000       0.338455         9.2098 
 113   0.0000       0.339248         9.2314 
 114   0.0000       0.352692         9.5972 
 115   0.0000       0.353420         9.6170 
 116   0.0000       0.413619        11.2551 
 117   0.0000       0.419776        11.4227 
 118   0.0000       0.425241        11.5714 
 119   0.0000       0.430244        11.7075 
-------
TIMINGS
-------

Total SCF time: 0 days 0 hours 0 min 0 sec 

Total time                  ....       0.109 sec
Sum of individual times     ....       0.087 sec  ( 80.4%)

Fock matrix formation       ....       0.043 sec  ( 39.3%)
Diagonalization             ....       0.025 sec  ( 22.9%)
Density matrix formation    ....       0.003 sec  (  2.7%)
Population analysis         ....       0.000 sec  (  0.0%)
Initial guess               ....       0.003 sec  (  2.9%)
Orbital Transformation      ....       0.000 sec  (  0.0%)
Orbital Orthonormalization  ....       0.000 sec  (  0.0%)
DIIS solution               ....       0.005 sec  (  4.5%)
SOSCF solution              ....       0.009 sec  (  8.0%)

-------------------------   --------------------
FINAL SINGLE POINT ENERGY       -20.175775420542
-------------------------   --------------------


                            ***************************************
                            *     ORCA property calculations      *
                            ***************************************

                                    ---------------------
                                    Active property flags
                                    ---------------------
   (+) Dipole Moment


------------------------------------------------------------------------------
                       ORCA ELECTRIC PROPERTIES CALCULATION
------------------------------------------------------------------------------

Dipole Moment Calculation                       ... on
Quadrupole Moment Calculation                   ... off
Polarizability Calculation                      ... off
GBWName                                         ... /home/mattyjones/Software/morphct/tests/output_EZ/donor_polymer/chromophores/input_orca/pair/00009-00028.gbw
Electron density file                           ... /home/mattyjones/Software/morphct/tests/output_EZ/donor_polymer/chromophores/input_orca/pair/00009-00028.scfp.tmp
The origin for moment calculation is the CENTER OF MASS  = (-2.102976, -1.526158 -0.082304)

-------------
DIPOLE MOMENT
-------------
                                X             Y             Z
Electronic contribution:   -230.83761    -166.72034     -11.12830
Nuclear contribution   :    124.06723      89.83280       5.80804
                        -----------------------------------------
Total Dipole Moment    :   -106.77038     -76.88754      -5.32026
                        -----------------------------------------
Magnitude (a.u.)       :    131.68110
Magnitude (Debye)      :    334.70676


Timings for individual modules:

Sum of individual times         ...        0.151 sec (=   0.003 min)
STO integral calculation        ...        0.032 sec (=   0.001 min)  21.5 %
SCF iterations                  ...        0.119 sec (=   0.002 min)  78.5 %
                             ****ORCA TERMINATED NORMALLY****
TOTAL RUN TIME: 0 days 0 hours 0 minutes 0 seconds 462 msec

