
                                 *****************
                                 * O   R   C   A *
                                 *****************

           --- An Ab Initio, DFT and Semiempirical electronic structure package ---

                  #######################################################
                  #                        -***-                        #
                  #  Department of molecular theory and spectroscopy    #
                  #              Directorship: Frank Neese              #
                  # Max Planck Institute for Chemical Energy Conversion #
                  #                  D-45470 Muelheim/Ruhr              #
                  #                       Germany                       #
                  #                                                     #
                  #                  All rights reserved                #
                  #                        -***-                        #
                  #######################################################


                         Program Version 3.0.3 - RELEASE   -


 With contributions from (in alphabetic order):
   Ute Becker             : Parallelization
   Dmytro Bykov           : SCF Hessian
   Dmitry Ganyushin       : Spin-Orbit,Spin-Spin,Magnetic field MRCI
   Andreas Hansen         : Spin unrestricted coupled pair/coupled cluster methods
   Dimitrios Liakos       : Extrapolation schemes; parallel MDCI
   Robert Izsak           : Overlap fitted RIJCOSX, COSX-SCS-MP3
   Christian Kollmar      : KDIIS, OOCD, Brueckner-CCSD(T), CCSD density
   Simone Kossmann        : Meta GGA functionals, TD-DFT gradient, OOMP2, MP2 Hessian
   Taras Petrenko         : DFT Hessian,TD-DFT gradient, ASA and ECA modules, normal mode analysis, Resonance Raman, ABS, FL, XAS/XES, NRVS
   Christoph Reimann      : Effective Core Potentials
   Michael Roemelt        : Restricted open shell CIS
   Christoph Riplinger    : Improved optimizer, TS searches, QM/MM, DLPNO-CCSD
   Barbara Sandhoefer     : DKH picture change effects
   Igor Schapiro          : Molecular dynamics
   Kantharuban Sivalingam : CASSCF convergence, NEVPT2
   Boris Wezisla          : Elementary symmetry handling
   Frank Wennmohs         : Technical directorship


 We gratefully acknowledge several colleagues who have allowed us to
 interface, adapt or use parts of their codes:
   Stefan Grimme, W. Hujo, H. Kruse, T. Risthaus : VdW corrections, initial TS optimization,
                                                   DFT functionals, gCP
   Ed Valeev                                     : LibInt (2-el integral package), F12 methods
   Garnet Chan, S. Sharma, R. Olivares           : DMRG
   Ulf Ekstrom                                   : XCFun DFT Library
   Mihaly Kallay                                 : mrcc  (arbitrary order and MRCC methods)
   Andreas Klamt, Michael Diedenhofen            : otool_cosmo (COSMO solvation model)
   Frank Weinhold                                : gennbo (NPA and NBO analysis)
   Christopher J. Cramer and Donald G. Truhlar   : smd solvation model


 Your calculation uses the libint2 library for the computation of 2-el integrals
 For citations please refer to: http://libint.valeyev.net

 This ORCA versions uses:
   CBLAS   interface :  Fast vector & matrix operations
   LAPACKE interface :  Fast linear algebra routines
   SCALAPACK package :  Parallel linear algebra routines


leaving
================================================================================
                                        WARNINGS
                       Please study these warnings very carefully!
================================================================================
Now building the actual basis set

WARNING: Direct SCF is incompatible with Method<>HF and Method<>DFT
  ===> : conventional SCF is chosen

WARNING: The NDO methods need Guess=HUECKEL or Guess=HCORE or Guess=MOREAD
  ===> : Guess is set to Hueckel

WARNING: The NDO methods need %rel::SOCType==1
  ===> : %rel::SOCType is set to 1

WARNING: The NDO methods cannot have frozencore=1
  ===> : %method FrozenCore=0 end


INFO   : the flag for use of LIBINT has been found!

================================================================================
                                       INPUT FILE
================================================================================
NAME = /Users/mattyjones/GoogleDrive/Boise/Code/MorphCT/tests/output_EZ/donor_polymer/chromophores/input_orca/pair/00002-00022.inp
|  1> # ================================================================
|  2> # Orca input file made by Matty Jones
|  3> # ================================================================
|  4> ! ZINDO/S 
|  5> ! NOPOP
|  6> ! NOMOPRINT
|  7> * xyz 0   1
|  8>  C  16.92237  6.66432  -7.29274
|  9>  C  16.23815  5.45171  -7.38924
| 10>  C  16.81695  4.39216  -6.62333
| 11>  C  17.96399  4.77004  -5.91848
| 12>  S  18.19839  6.37266  -6.27500
| 13>  H  15.16433  5.43008  -7.76876
| 14>  C  16.13909  2.95869  -6.66024
| 15>  C  14.45667  3.02046  -6.45101
| 16>  C  13.79486  3.21150  -7.98753
| 17>  H  12.82817  3.83244  -7.89218
| 18>  H  14.54560  3.76661  -8.66675
| 19>  H  14.08531  2.05190  -5.96273
| 20>  H  14.18021  3.92683  -5.79755
| 21>  H  16.48824  2.24216  -5.83160
| 22>  H  16.37085  2.44300  -7.68726
| 23>  C  13.50875  1.78015  -8.70283
| 24>  C  13.05551  1.87683  -10.32601
| 25>  C  13.00630  3.42068  -10.99627
| 26>  H  12.72399  3.33410  -12.11607
| 27>  H  14.04438  3.92238  -10.90213
| 28>  H  12.21238  4.05566  -10.44439
| 29>  H  13.81126  1.25418  -10.93558
| 30>  H  12.00516  1.41285  -10.42715
| 31>  H  14.45871  1.12189  -8.64252
| 32>  H  12.65292  1.24410  -8.13549
| 33>  C  -17.35718  -7.07626  6.52301
| 34>  C  -16.47137  -6.09575  6.97225
| 35>  C  -17.05760  -5.14311  7.86278
| 36>  C  -18.41315  -5.37252  8.11800
| 37>  S  -18.80947  -6.72298  7.24076
| 38>  H  -15.37033  -6.05541  6.68661
| 39>  C  -16.21074  -3.90535  8.47436
| 40>  C  -15.27999  -2.99196  7.41177
| 41>  C  -14.59761  -1.72303  8.29462
| 42>  H  -14.54400  -2.02462  9.40699
| 43>  H  -15.34427  -0.83626  8.21053
| 44>  H  -14.45822  -3.64590  6.94579
| 45>  H  -15.96318  -2.56309  6.59138
| 46>  H  -16.79043  -3.10354  9.06123
| 47>  H  -15.45810  -4.37015  9.24065
| 48>  C  -13.15661  -1.23687  7.73525
| 49>  C  -11.84125  -1.99517  8.48502
| 50>  C  -12.19920  -3.02756  9.76914
| 51>  H  -12.67983  -2.42144  10.62937
| 52>  H  -11.21850  -3.51481  10.14653
| 53>  H  -12.92615  -3.85324  9.41311
| 54>  H  -11.29254  -2.61645  7.68383
| 55>  H  -11.13937  -1.17084  8.88078
| 56>  H  -13.04626  -0.09721  7.90252
| 57>  H  -13.08472  -1.45230  6.60046
| 58>  H  16.67783  7.57890  -7.76955
| 59>  H  18.55910  4.15991  -5.28825
| 60>  H  -17.14602  -7.87779  5.86229
| 61>  H  -19.05338  -4.80259  8.74161
| 62> *
| 63> 
| 64>                          ****END OF INPUT****
================================================================================

                       ****************************
                       * Single Point Calculation *
                       ****************************

---------------------------------
CARTESIAN COORDINATES (ANGSTROEM)
---------------------------------
  C     16.922370    6.664320   -7.292740
  C     16.238150    5.451710   -7.389240
  C     16.816950    4.392160   -6.623330
  C     17.963990    4.770040   -5.918480
  S     18.198390    6.372660   -6.275000
  H     15.164330    5.430080   -7.768760
  C     16.139090    2.958690   -6.660240
  C     14.456670    3.020460   -6.451010
  C     13.794860    3.211500   -7.987530
  H     12.828170    3.832440   -7.892180
  H     14.545600    3.766610   -8.666750
  H     14.085310    2.051900   -5.962730
  H     14.180210    3.926830   -5.797550
  H     16.488240    2.242160   -5.831600
  H     16.370850    2.443000   -7.687260
  C     13.508750    1.780150   -8.702830
  C     13.055510    1.876830  -10.326010
  C     13.006300    3.420680  -10.996270
  H     12.723990    3.334100  -12.116070
  H     14.044380    3.922380  -10.902130
  H     12.212380    4.055660  -10.444390
  H     13.811260    1.254180  -10.935580
  H     12.005160    1.412850  -10.427150
  H     14.458710    1.121890   -8.642520
  H     12.652920    1.244100   -8.135490
  C    -17.357180   -7.076260    6.523010
  C    -16.471370   -6.095750    6.972250
  C    -17.057600   -5.143110    7.862780
  C    -18.413150   -5.372520    8.118000
  S    -18.809470   -6.722980    7.240760
  H    -15.370330   -6.055410    6.686610
  C    -16.210740   -3.905350    8.474360
  C    -15.279990   -2.991960    7.411770
  C    -14.597610   -1.723030    8.294620
  H    -14.544000   -2.024620    9.406990
  H    -15.344270   -0.836260    8.210530
  H    -14.458220   -3.645900    6.945790
  H    -15.963180   -2.563090    6.591380
  H    -16.790430   -3.103540    9.061230
  H    -15.458100   -4.370150    9.240650
  C    -13.156610   -1.236870    7.735250
  C    -11.841250   -1.995170    8.485020
  C    -12.199200   -3.027560    9.769140
  H    -12.679830   -2.421440   10.629370
  H    -11.218500   -3.514810   10.146530
  H    -12.926150   -3.853240    9.413110
  H    -11.292540   -2.616450    7.683830
  H    -11.139370   -1.170840    8.880780
  H    -13.046260   -0.097210    7.902520
  H    -13.084720   -1.452300    6.600460
  H     16.677830    7.578900   -7.769550
  H     18.559100    4.159910   -5.288250
  H    -17.146020   -7.877790    5.862290
  H    -19.053380   -4.802590    8.741610

----------------------------
CARTESIAN COORDINATES (A.U.)
----------------------------
  NO LB      ZA    FRAG    MASS        X           Y           Z
   0 C     4.0000    0    12.011         31.978644836884975         12.593739668814075        -13.781281365892870
   1 C     4.0000    0    12.011         30.685656421533373         10.302238861559827        -13.963639937816270
   2 C     4.0000    0    12.011         31.779429907846989          8.299979536363564        -12.516279794584644
   3 C     4.0000    0    12.011         33.947021372500025          9.014069247849728        -11.184306329090250
   4 S     6.0000    0    32.060         34.389973178291164         12.042582144594602        -11.858031490355854
   5 H     1.0000    0     1.008         28.656430704406052         10.261364085283111        -14.680828800162063
   6 C     4.0000    0    12.011         30.498460150707132          5.591113815171468        -12.586029586187678
   7 C     4.0000    0    12.011         27.319147108475342          5.707842198463783        -12.190642187187334
   8 C     4.0000    0    12.011         26.068507455784918          6.068855479088100        -15.094244186480015
   9 H     1.0000    0     1.008         24.241728099384584          7.242262024685162        -14.914058799610624
  10 H     1.0000    0     1.008         27.487200453564959          7.117861353289126        -16.377783971162010
  11 H     1.0000    0     1.008         26.617378411382344          3.877529054193016        -11.267926710516264
  12 H     1.0000    0     1.008         26.796713421491472          7.420633274465988        -10.955781747715154
  13 H     1.0000    0     1.008         31.158258030365740          4.237068348432873        -11.020126922575171
  14 H     1.0000    0     1.008         30.936423079504724          4.616600945169618        -14.526816120247481
  15 C     4.0000    0    12.011         25.527837911608707          3.363995977299916        -16.445965290073886
  16 C     4.0000    0    12.011         24.671338438670240          3.546694699927423        -19.513330956132183
  17 C     4.0000    0    12.011         24.578345015619973          6.464148391781747        -20.779938794654242
  18 H     1.0000    0     1.008         24.044856430752667          6.300535903106845        -22.896054119419261
  19 H     1.0000    0     1.008         26.540031920720949          7.412223993170039        -20.602039976406896
  20 H     1.0000    0     1.008         23.078053643377213          7.664086692299063        -19.737036735865782
  21 H     1.0000    0     1.008         26.099498964381226          2.370056722641356        -20.665251315586563
  22 H     1.0000    0     1.008         22.686464593906052          2.669899568310640        -19.704457857316978
  23 H     1.0000    0     1.008         27.323002149788540          2.120064852384913        -16.331995906937095
  24 H     1.0000    0     1.008         23.910553594414882          2.351008283211429        -15.373848065255006
  25 C     4.0000    0    12.011        -32.800316657175273        -13.372193452421596         12.326702468829664
  26 C     4.0000    0    12.011        -31.126378350486487        -11.519298080850469         13.175643037232447
  27 C     4.0000    0    12.011        -32.234192501975144         -9.719069376631730         14.858500851273339
  28 C     4.0000    0    12.011        -34.795810762812096        -10.152591449014603         15.340796755172722
  29 S     6.0000    0    32.060        -35.544747024207766        -12.704591003829895         13.683053401451643
  30 H     1.0000    0     1.008        -29.045714287993832        -11.443066528608087         12.635861664339181
  31 C     4.0000    0    12.011        -30.633859028202593         -7.380041957109360         16.014219560256901
  32 C     4.0000    0    12.011        -28.874996429055386         -5.653985003647028         14.006215467613515
  33 C     4.0000    0    12.011        -27.585485109790202         -3.256054820530335         15.674560184945893
  34 H     1.0000    0     1.008        -27.484176891750685         -3.825977325259645         17.776634844535877
  35 H     1.0000    0     1.008        -28.996468024943844         -1.580302376752986         15.515653114344454
  36 H     1.0000    0     1.008        -27.322076183982922         -6.889752511663492         13.125640883728890
  37 H     1.0000    0     1.008        -30.166038426489045         -4.843538156592221         12.455903044605860
  38 H     1.0000    0     1.008        -31.729314370775402         -5.864840645669962         17.123243136471263
  39 H     1.0000    0     1.008        -29.211575550768099         -8.258386664155957         17.462297799419414
  40 C     4.0000    0    12.011        -24.862389750809680         -2.337345563263178         14.617504077414361
  41 C     4.0000    0    12.011        -22.376719583295021         -3.770324890615664         16.034364040844501
  42 C     4.0000    0    12.011        -23.053147052932133         -5.721259254014624         18.460999163935458
  43 H     1.0000    0     1.008        -23.961406124678707         -4.575858449722276         20.086598276118533
  44 H     1.0000    0     1.008        -21.199892633395564         -6.642028312767755         19.174162909615998
  45 H     1.0000    0     1.008        -24.426883465986187         -7.281568328270724         17.788199968475471
  46 H     1.0000    0     1.008        -21.339807956351091         -4.944373943098259         14.520334359608132
  47 H     1.0000    0     1.008        -21.050358604418371         -2.212566946640358         16.782242055605174
  48 H     1.0000    0     1.008        -24.653858471931468         -0.183700277478485         14.933598567835370
  49 H     1.0000    0     1.008        -24.726537339042082         -2.744449264293834         12.473061757901865
  50 H     1.0000    0     1.008         31.516531208095870         14.322045396375774        -14.682321683807860
  51 H     1.0000    0     1.008         35.071616292057904          7.861090641760354         -9.993344227709059
  52 H     1.0000    0     1.008        -32.401282086736458        -14.886865640543498         11.078122617625214
  53 H     1.0000    0     1.008        -36.005670125532497         -9.075579833508865         16.519248869547351

--------------------------------
INTERNAL COORDINATES (ANGSTROEM)
--------------------------------
 C      0   0   0   0.000000     0.000     0.000
 C      1   0   0   1.395669     0.000     0.000
 C      2   1   0   1.429781   114.102     0.000
 C      3   2   1   1.398323   113.693     0.000
 S      1   2   3   1.658037   105.480     0.000
 H      2   1   3   1.139119   120.111   161.973
 C      3   2   1   1.586094   118.965   180.565
 C      7   3   2   1.696505   112.833   313.035
 C      8   7   3   1.683859   106.341    88.541
 H      9   8   7   1.152887   108.372   211.958
 H      9   8   7   1.154598   109.621   331.499
 H      8   7   3   1.146488   110.059   208.760
 H      8   7   3   1.151063   109.686   330.189
 H      7   3   2   1.149767   114.625   194.778
 H      7   3   2   1.172356   109.478    74.188
 C      9   8   7   1.625508   111.766    88.964
 C     16   9   8   1.688042   114.832   188.429
 C     17  16   9   1.683788   116.304     1.817
 H     18  17  16   1.158079   108.874   177.774
 H     18  17  16   1.156795   109.818    58.186
 H     18  17  16   1.156754   109.479   297.543
 H     17  16   9   1.153441   107.538   122.584
 H     17  16   9   1.152711   107.817   240.541
 H     16   9   8   1.157310   109.478   309.620
 H     16   9   8   1.158304   108.785    68.063
 C     25  16   9  34.419560   164.726    58.117
 C     26  25  16   1.395663    54.118   289.428
 C     27  26  25   1.429767   114.101   161.415
 C     28  27  26   1.398314   113.694     0.000
 S     26  25  16   1.658046   153.707   333.331
 H     27  26  25   1.138203   123.923   339.999
 C     28  27  26   1.619646   122.005   181.322
 C     32  28  27   1.682164   117.758    47.667
 C     33  32  28   1.689748   107.528   176.291
 H     34  33  32   1.153775   109.038    24.001
 H     34  33  32   1.162297   106.005   268.657
 H     33  32  28   1.148948   110.053   296.725
 H     33  32  28   1.150529   108.921    57.815
 H     32  28  27   1.150372   117.504   171.560
 H     32  28  27   1.170345   106.259   289.285
 C     34  33  32   1.620410   113.833   149.468
 C     41  34  33   1.693324   113.802   266.872
 C     42  41  34   1.686097   116.520   355.033
 H     43  42  41   1.156885   109.494   296.556
 H     43  42  41   1.158278   109.024   177.070
 H     43  42  41   1.156270   109.646    57.317
 H     42  41  34   1.152813   107.659   115.773
 H     42  41  34   1.152728   107.743   233.813
 H     41  34  33   1.157144   109.293   146.524
 H     41  34  33   1.157293   109.748    27.516
 H      1   2   3   1.060002   127.261   180.000
 H      4   3   2   1.060002   127.206   180.000
 H     26  25  16   1.059995    75.146   124.644
 H     29  28  27   1.060002   127.206   180.001

---------------------------
INTERNAL COORDINATES (A.U.)
---------------------------
 C      0   0   0   0.000000     0.000     0.000
 C      1   0   0   2.637432     0.000     0.000
 C      2   1   0   2.701895   114.102     0.000
 C      3   2   1   2.642448   113.693     0.000
 S      1   2   3   3.133236   105.480     0.000
 H      2   1   3   2.152623   120.111   161.973
 C      3   2   1   2.997282   118.965   180.565
 C      7   3   2   3.205930   112.833   313.035
 C      8   7   3   3.182033   106.341    88.541
 H      9   8   7   2.178640   108.372   211.958
 H      9   8   7   2.181875   109.621   331.499
 H      8   7   3   2.166548   110.059   208.760
 H      8   7   3   2.175194   109.686   330.189
 H      7   3   2   2.172746   114.625   194.778
 H      7   3   2   2.215432   109.478    74.188
 C      9   8   7   3.071765   111.766    88.964
 C     16   9   8   3.189938   114.832   188.429
 C     17  16   9   3.181899   116.304     1.817
 H     18  17  16   2.188452   108.874   177.774
 H     18  17  16   2.186026   109.818    58.186
 H     18  17  16   2.185948   109.479   297.543
 H     17  16   9   2.179688   107.538   122.584
 H     17  16   9   2.178307   107.817   240.541
 H     16   9   8   2.187000   109.478   309.620
 H     16   9   8   2.188878   108.785    68.063
 C     25  16   9  65.043542   164.726    58.117
 C     26  25  16   2.637421    54.118   289.428
 C     27  26  25   2.701867   114.101   161.415
 C     28  27  26   2.642430   113.694     0.000
 S     26  25  16   3.133254   153.707   333.331
 H     27  26  25   2.150892   123.923   339.999
 C     28  27  26   3.060687   122.005   181.322
 C     32  28  27   3.178829   117.758    47.667
 C     33  32  28   3.193162   107.528   176.291
 H     34  33  32   2.180319   109.038    24.001
 H     34  33  32   2.196422   106.005   268.657
 H     33  32  28   2.171196   110.053   296.725
 H     33  32  28   2.174185   108.921    57.815
 H     32  28  27   2.173888   117.504   171.560
 H     32  28  27   2.211631   106.259   289.285
 C     34  33  32   3.062130   113.833   149.468
 C     41  34  33   3.199918   113.802   266.872
 C     42  41  34   3.186261   116.520   355.033
 H     43  42  41   2.186195   109.494   296.556
 H     43  42  41   2.188828   109.024   177.070
 H     43  42  41   2.185034   109.646    57.317
 H     42  41  34   2.178500   107.659   115.773
 H     42  41  34   2.178340   107.743   233.813
 H     41  34  33   2.186684   109.293   146.524
 H     41  34  33   2.186966   109.748    27.516
 H      1   2   3   2.003113   127.261   180.000
 H      4   3   2   2.003114   127.206   180.000
 H     26  25  16   2.003101    75.146   124.644
 H     29  28  27   2.003113   127.206   180.001

----------------------------
SLATER BASIS SET DIM= 120
----------------------------
  0 C     2 shells
 l=0 nsto= 1
    2       1.625000000000        1.000000000000
 l=1 nsto= 1
    2       1.625000000000        1.000000000000
  1 C     2 shells
 l=0 nsto= 1
    2       1.625000000000        1.000000000000
 l=1 nsto= 1
    2       1.625000000000        1.000000000000
  2 C     2 shells
 l=0 nsto= 1
    2       1.625000000000        1.000000000000
 l=1 nsto= 1
    2       1.625000000000        1.000000000000
  3 C     2 shells
 l=0 nsto= 1
    2       1.625000000000        1.000000000000
 l=1 nsto= 1
    2       1.625000000000        1.000000000000
  4 S     2 shells
 l=0 nsto= 1
    3       1.925000000000        1.000000000000
 l=1 nsto= 1
    3       1.925000000000        1.000000000000
  5 H     1 shells
 l=0 nsto= 1
    1       1.200000000000        1.000000000000
  6 C     2 shells
 l=0 nsto= 1
    2       1.625000000000        1.000000000000
 l=1 nsto= 1
    2       1.625000000000        1.000000000000
  7 C     2 shells
 l=0 nsto= 1
    2       1.625000000000        1.000000000000
 l=1 nsto= 1
    2       1.625000000000        1.000000000000
  8 C     2 shells
 l=0 nsto= 1
    2       1.625000000000        1.000000000000
 l=1 nsto= 1
    2       1.625000000000        1.000000000000
  9 H     1 shells
 l=0 nsto= 1
    1       1.200000000000        1.000000000000
 10 H     1 shells
 l=0 nsto= 1
    1       1.200000000000        1.000000000000
 11 H     1 shells
 l=0 nsto= 1
    1       1.200000000000        1.000000000000
 12 H     1 shells
 l=0 nsto= 1
    1       1.200000000000        1.000000000000
 13 H     1 shells
 l=0 nsto= 1
    1       1.200000000000        1.000000000000
 14 H     1 shells
 l=0 nsto= 1
    1       1.200000000000        1.000000000000
 15 C     2 shells
 l=0 nsto= 1
    2       1.625000000000        1.000000000000
 l=1 nsto= 1
    2       1.625000000000        1.000000000000
 16 C     2 shells
 l=0 nsto= 1
    2       1.625000000000        1.000000000000
 l=1 nsto= 1
    2       1.625000000000        1.000000000000
 17 C     2 shells
 l=0 nsto= 1
    2       1.625000000000        1.000000000000
 l=1 nsto= 1
    2       1.625000000000        1.000000000000
 18 H     1 shells
 l=0 nsto= 1
    1       1.200000000000        1.000000000000
 19 H     1 shells
 l=0 nsto= 1
    1       1.200000000000        1.000000000000
 20 H     1 shells
 l=0 nsto= 1
    1       1.200000000000        1.000000000000
 21 H     1 shells
 l=0 nsto= 1
    1       1.200000000000        1.000000000000
 22 H     1 shells
 l=0 nsto= 1
    1       1.200000000000        1.000000000000
 23 H     1 shells
 l=0 nsto= 1
    1       1.200000000000        1.000000000000
 24 H     1 shells
 l=0 nsto= 1
    1       1.200000000000        1.000000000000
 25 C     2 shells
 l=0 nsto= 1
    2       1.625000000000        1.000000000000
 l=1 nsto= 1
    2       1.625000000000        1.000000000000
 26 C     2 shells
 l=0 nsto= 1
    2       1.625000000000        1.000000000000
 l=1 nsto= 1
    2       1.625000000000        1.000000000000
 27 C     2 shells
 l=0 nsto= 1
    2       1.625000000000        1.000000000000
 l=1 nsto= 1
    2       1.625000000000        1.000000000000
 28 C     2 shells
 l=0 nsto= 1
    2       1.625000000000        1.000000000000
 l=1 nsto= 1
    2       1.625000000000        1.000000000000
 29 S     2 shells
 l=0 nsto= 1
    3       1.925000000000        1.000000000000
 l=1 nsto= 1
    3       1.925000000000        1.000000000000
 30 H     1 shells
 l=0 nsto= 1
    1       1.200000000000        1.000000000000
 31 C     2 shells
 l=0 nsto= 1
    2       1.625000000000        1.000000000000
 l=1 nsto= 1
    2       1.625000000000        1.000000000000
 32 C     2 shells
 l=0 nsto= 1
    2       1.625000000000        1.000000000000
 l=1 nsto= 1
    2       1.625000000000        1.000000000000
 33 C     2 shells
 l=0 nsto= 1
    2       1.625000000000        1.000000000000
 l=1 nsto= 1
    2       1.625000000000        1.000000000000
 34 H     1 shells
 l=0 nsto= 1
    1       1.200000000000        1.000000000000
 35 H     1 shells
 l=0 nsto= 1
    1       1.200000000000        1.000000000000
 36 H     1 shells
 l=0 nsto= 1
    1       1.200000000000        1.000000000000
 37 H     1 shells
 l=0 nsto= 1
    1       1.200000000000        1.000000000000
 38 H     1 shells
 l=0 nsto= 1
    1       1.200000000000        1.000000000000
 39 H     1 shells
 l=0 nsto= 1
    1       1.200000000000        1.000000000000
 40 C     2 shells
 l=0 nsto= 1
    2       1.625000000000        1.000000000000
 l=1 nsto= 1
    2       1.625000000000        1.000000000000
 41 C     2 shells
 l=0 nsto= 1
    2       1.625000000000        1.000000000000
 l=1 nsto= 1
    2       1.625000000000        1.000000000000
 42 C     2 shells
 l=0 nsto= 1
    2       1.625000000000        1.000000000000
 l=1 nsto= 1
    2       1.625000000000        1.000000000000
 43 H     1 shells
 l=0 nsto= 1
    1       1.200000000000        1.000000000000
 44 H     1 shells
 l=0 nsto= 1
    1       1.200000000000        1.000000000000
 45 H     1 shells
 l=0 nsto= 1
    1       1.200000000000        1.000000000000
 46 H     1 shells
 l=0 nsto= 1
    1       1.200000000000        1.000000000000
 47 H     1 shells
 l=0 nsto= 1
    1       1.200000000000        1.000000000000
 48 H     1 shells
 l=0 nsto= 1
    1       1.200000000000        1.000000000000
 49 H     1 shells
 l=0 nsto= 1
    1       1.200000000000        1.000000000000
 50 H     1 shells
 l=0 nsto= 1
    1       1.200000000000        1.000000000000
 51 H     1 shells
 l=0 nsto= 1
    1       1.200000000000        1.000000000000
 52 H     1 shells
 l=0 nsto= 1
    1       1.200000000000        1.000000000000
 53 H     1 shells
 l=0 nsto= 1
    1       1.200000000000        1.000000000000
------------------------------------------------------------------------------
                           ORCA NDO INTEGRAL CALCULATION
------------------------------------------------------------------------------

--------------
NDO PARAMETERS
--------------

Gamma integral treatment              ... Mataga-Nishimoto
Nuclear repulsuion treatment          ... Direct (ZA*ZB/RAB)
Interaction factors:
s-s (sigma) =    1.0000
s-p (sigma) =    1.0000
s-d (sigma) =    1.0000
p-p (sigma) =    1.2670  p-p(pi) =    0.5850
p-d (sigma) =    1.0000  p-d(pi) =    1.0000
d-d (sigma) =    1.0000  d-d(pi) =    1.0000 d-d (delta) =    1.0000

fGamma parameter for Mataga-Nishimoto gamma integrals:    1.2000

--------------------------
Parameters for Element H :
--------------------------
 One-electron parameters (in eV)
  U(s)  =   -13.060000 Beta(s) =    12.000000 Neff(s) =     1.000000
 One-center electron repulsion parameters (in eV)
  G(s,s)=    12.850000
--------------------------
Parameters for Element C :
--------------------------
 One-electron parameters (in eV)
  U(s)  =   -50.870766 Beta(s) =    17.000000 Neff(s) =     2.000000
  U(p)  =   -41.599980 Beta(p) =    17.000000 Neff(p) =     2.000000 
 One-center electron repulsion parameters (in eV)
  G(s,s)=    11.110000
  G(s,p)=    11.110000 G(p,p)  =    11.110000
 Slater-Condon parameters (in eV)
 F2(p,p)=     4.5098 G1(s,p)=    6.8977
--------------------------
Parameters for Element S :
--------------------------
 One-electron parameters (in eV)
  U(s)  =   -69.509597 Beta(s) =    15.000000 Neff(s) =     2.000000
  U(p)  =   -60.725746 Beta(p) =    15.000000 Neff(p) =     4.000000 
 One-center electron repulsion parameters (in eV)
  G(s,s)=    10.090000
  G(s,p)=    10.090000 G(p,p)  =    10.090000
 Slater-Condon parameters (in eV)
 F2(p,p)=     4.5377 G1(s,p)=    3.0756

 Number of atoms                    ....   54
 Number of basis functions          ....  120

 Overlap integrals                  .... done
 One electron matrix                .... done
 Nuclear repulsion                  .... done
 Integral list                      .... done
 Electron-electron repulsion        .... done
-------------------------------------------------------------------------------
                                 ORCA SCF
-------------------------------------------------------------------------------

------------
SCF SETTINGS
------------
Hamiltonian:
 ZDO-Hamiltonian        Method          .... INDO


General Settings:
 Integral files         IntName         .... /Users/mattyjones/GoogleDrive/Boise/Code/MorphCT/tests/output_EZ/donor_polymer/chromophores/input_orca/pair/00002-00022
 Hartree-Fock type      HFTyp           .... RHF
 Total Charge           Charge          ....    0
 Multiplicity           Mult            ....    1
 Number of Electrons    NEL             ....  124
 Basis Dimension        Dim             ....  120
 Nuclear Repulsion      ENuc            ....    662.9291265614 Eh

Convergence Acceleration:
 DIIS                   CNVDIIS         .... on
   Start iteration      DIISMaxIt       ....    12
   Startup error        DIISStart       ....  0.200000
   # of expansion vecs  DIISMaxEq       ....     5
   Bias factor          DIISBfac        ....   1.050
   Max. coefficient     DIISMaxC        ....  10.000
 Newton-Raphson         CNVNR           .... off
 SOSCF                  CNVSOSCF        .... on
   Start iteration      SOSCFMaxIt      ....   150
   Startup grad/error   SOSCFStart      ....  0.003300
 Level Shifting         CNVShift        .... on
   Level shift para.    LevelShift      ....    0.2500
   Turn off err/grad.   ShiftErr        ....    0.0010
 Zerner damping         CNVZerner       .... off
 Static damping         CNVDamp         .... on
   Fraction old density DampFac         ....    0.7000
   Max. Damping (<1)    DampMax         ....    0.9800
   Min. Damping (>=0)   DampMin         ....    0.0000
   Turn off err/grad.   DampErr         ....    0.1000
 Fernandez-Rico         CNVRico         .... off

SCF Procedure:
 Maximum # iterations   MaxIter         ....   125
 SCF integral mode      SCFMode         .... Conventional
 Integral Buffer length BufferLength    .... 1048576
 Integral index format  IndFormat       ....     0
 Integral value format  ValFormat       ....     0
 Integral Storage       Thresh          ....  1.000e-08 Eh

Convergence Tolerance:
 Convergence Check Mode ConvCheckMode   .... Total+1el-Energy
 Energy Change          TolE            ....  1.000e-06 Eh
 1-El. energy change                    ....  1.000e-03 Eh
 Orbital Gradient       TolG            ....  5.000e-05
 Orbital Rotation angle TolX            ....  5.000e-05
 DIIS Error             TolErr          ....  1.000e-06


Diagonalization of the overlap matrix:
Smallest eigenvalue                        ... 1.695e-01
Time for diagonalization                   ...    0.003 sec
Threshold for overlap eigenvalues          ... 1.000e-08
Number of eigenvalues below threshold      ... 0
Time for construction of square roots      ...    0.001 sec
Total time needed                          ...    0.005 sec

-------------------------------
INITIAL GUESS: EXTENDED HUECKEL
-------------------------------
EHT matrix was read from disk
EHT matrix was diagonalized
Initial density was built
                      ------------------
                      INITIAL GUESS DONE
                      ------------------

 InCore treatment chosen:
   Memory dedicated               ...    1024 MB
   Memory needed                  ...      0 MB
   Number of tiny    integrals    ...       0
   Number of small   integrals    ...       0
   Number of regular integrals    ...    7392

--------------
SCF ITERATIONS
--------------
ITER       Energy         Delta-E        Max-DP      RMS-DP      [F,P]     Damp
  0    -17.2271626573   0.000000000000 0.04112132  0.00144152  0.1069863 0.7000
  1    -17.2686330076  -0.041470350307 0.03864514  0.00135745  0.0727827 0.7000
                               ***Turning on DIIS***
  2    -17.2993256810  -0.030692673376 0.09779948  0.00348353  0.0458493 0.0000
  3    -17.3779170212  -0.078591340220 0.01875129  0.00071905  0.0211804 0.0000
  4    -17.3657319044   0.012185116793 0.01045892  0.00049344  0.0074800 0.0000
  5    -17.3819113017  -0.016179397212 0.00771269  0.00033442  0.0042710 0.0000
  6    -17.3850146992  -0.003103397549 0.00612517  0.00023856  0.0022621 0.0000
                      *** Initiating the SOSCF procedure ***
                           *** Shutting down DIIS ***
                      *** Re-Reading the Fockian *** 
                      *** Removing any level shift *** 
ITER      Energy       Delta-E        Grad      Rot      Max-DP    RMS-DP
  7    -17.38047030   0.0045443968  0.003033  0.003033  0.003660  0.000135
  8    -17.37810715   0.0023631551  0.000822  0.002278  0.001854  0.000063
  9    -17.37812212  -0.0000149730  0.000369  0.002262  0.002105  0.000067
 10    -17.37812765  -0.0000055313  0.000027  0.000059  0.000099  0.000004
                 **** Energy Check signals convergence ****
              ***Rediagonalizing the Fockian in SOSCF/NRSCF***

               *****************************************************
               *                     SUCCESS                       *
               *           SCF CONVERGED AFTER  11 CYCLES          *
               *****************************************************


----------------
TOTAL SCF ENERGY
----------------

Total Energy       :          -17.37812770 Eh            -472.88290 eV

Components:
Nuclear Repulsion  :          662.92912656 Eh           18039.21863 eV
Electronic Energy  :         -680.30725426 Eh          -18512.10153 eV

One Electron Energy:        -1270.05430054 Eh          -34559.93451 eV
Two Electron Energy:          589.74704628 Eh           16047.83299 eV


---------------
SCF CONVERGENCE
---------------

  Last Energy change         ...   -4.5586e-08  Tolerance :   1.0000e-06
  Last MAX-Density change    ...    3.8979e-05  Tolerance :   1.0000e-05
  Last RMS-Density change    ...    1.1810e-06  Tolerance :   1.0000e-06
  Last Orbital Gradient      ...    7.4333e-06  Tolerance :   5.0000e-05
  Last Orbital Rotation      ...    2.2512e-05  Tolerance :   5.0000e-05

             **** THE GBW FILE WAS UPDATED (/Users/mattyjones/GoogleDrive/Boise/Code/MorphCT/tests/output_EZ/donor_polymer/chromophores/input_orca/pair/00002-00022.gbw) ****
             **** DENSITY FILE WAS UPDATED (/Users/mattyjones/GoogleDrive/Boise/Code/MorphCT/tests/output_EZ/donor_polymer/chromophores/input_orca/pair/00002-00022.scfp.tmp) ****
             **** ENERGY FILE WAS UPDATED (/Users/mattyjones/GoogleDrive/Boise/Code/MorphCT/tests/output_EZ/donor_polymer/chromophores/input_orca/pair/00002-00022.en.tmp) ****
----------------
ORBITAL ENERGIES
----------------

  NO   OCC          E(Eh)            E(eV) 
   0   2.0000      -1.566802       -42.6349 
   1   2.0000      -1.557014       -42.3685 
   2   2.0000      -1.424235       -38.7554 
   3   2.0000      -1.423993       -38.7488 
   4   2.0000      -1.299383       -35.3580 
   5   2.0000      -1.288297       -35.0564 
   6   2.0000      -1.168579       -31.7986 
   7   2.0000      -1.168081       -31.7851 
   8   2.0000      -1.115966       -30.3670 
   9   2.0000      -1.109770       -30.1984 
  10   2.0000      -1.047207       -28.4960 
  11   2.0000      -1.030983       -28.0545 
  12   2.0000      -0.986453       -26.8427 
  13   2.0000      -0.957521       -26.0555 
  14   2.0000      -0.918032       -24.9809 
  15   2.0000      -0.909008       -24.7354 
  16   2.0000      -0.847691       -23.0668 
  17   2.0000      -0.837387       -22.7864 
  18   2.0000      -0.828777       -22.5522 
  19   2.0000      -0.821957       -22.3666 
  20   2.0000      -0.785163       -21.3654 
  21   2.0000      -0.777980       -21.1699 
  22   2.0000      -0.730851       -19.8875 
  23   2.0000      -0.724430       -19.7127 
  24   2.0000      -0.721533       -19.6339 
  25   2.0000      -0.709606       -19.3094 
  26   2.0000      -0.689553       -18.7637 
  27   2.0000      -0.683618       -18.6022 
  28   2.0000      -0.630721       -17.1628 
  29   2.0000      -0.627557       -17.0767 
  30   2.0000      -0.613991       -16.7075 
  31   2.0000      -0.606024       -16.4908 
  32   2.0000      -0.598668       -16.2906 
  33   2.0000      -0.588955       -16.0263 
  34   2.0000      -0.576598       -15.6900 
  35   2.0000      -0.575944       -15.6722 
  36   2.0000      -0.566980       -15.4283 
  37   2.0000      -0.560701       -15.2575 
  38   2.0000      -0.555719       -15.1219 
  39   2.0000      -0.546949       -14.8832 
  40   2.0000      -0.537309       -14.6209 
  41   2.0000      -0.534916       -14.5558 
  42   2.0000      -0.527673       -14.3587 
  43   2.0000      -0.518463       -14.1081 
  44   2.0000      -0.510371       -13.8879 
  45   2.0000      -0.509172       -13.8553 
  46   2.0000      -0.496044       -13.4981 
  47   2.0000      -0.493560       -13.4305 
  48   2.0000      -0.489015       -13.3068 
  49   2.0000      -0.487572       -13.2675 
  50   2.0000      -0.481269       -13.0960 
  51   2.0000      -0.472715       -12.8632 
  52   2.0000      -0.471558       -12.8318 
  53   2.0000      -0.467659       -12.7256 
  54   2.0000      -0.466268       -12.6878 
  55   2.0000      -0.446880       -12.1602 
  56   2.0000      -0.437050       -11.8927 
  57   2.0000      -0.435667       -11.8551 
  58   2.0000      -0.356327        -9.6961 
  59   2.0000      -0.352987        -9.6053 
  60   2.0000      -0.304703        -8.2914 
  61   2.0000      -0.304273        -8.2797 
  62   0.0000       0.008061         0.2194 
  63   0.0000       0.008115         0.2208 
  64   0.0000       0.068146         1.8543 
  65   0.0000       0.071358         1.9417 
  66   0.0000       0.079779         2.1709 
  67   0.0000       0.084244         2.2924 
  68   0.0000       0.090656         2.4669 
  69   0.0000       0.091099         2.4789 
  70   0.0000       0.102792         2.7971 
  71   0.0000       0.105954         2.8831 
  72   0.0000       0.107628         2.9287 
  73   0.0000       0.107924         2.9368 
  74   0.0000       0.121181         3.2975 
  75   0.0000       0.124204         3.3798 
  76   0.0000       0.140025         3.8103 
  77   0.0000       0.144173         3.9231 
  78   0.0000       0.154782         4.2118 
  79   0.0000       0.157558         4.2874 
  80   0.0000       0.163980         4.4621 
  81   0.0000       0.165084         4.4922 
  82   0.0000       0.169730         4.6186 
  83   0.0000       0.172148         4.6844 
  84   0.0000       0.208158         5.6643 
  85   0.0000       0.208635         5.6772 
  86   0.0000       0.232484         6.3262 
  87   0.0000       0.233738         6.3603 
  88   0.0000       0.235291         6.4026 
  89   0.0000       0.236491         6.4352 
  90   0.0000       0.236898         6.4463 
  91   0.0000       0.238433         6.4881 
  92   0.0000       0.239500         6.5171 
  93   0.0000       0.240825         6.5532 
  94   0.0000       0.242011         6.5855 
  95   0.0000       0.242286         6.5929 
  96   0.0000       0.243640         6.6298 
  97   0.0000       0.243912         6.6372 
  98   0.0000       0.245066         6.6686 
  99   0.0000       0.246809         6.7160 
 100   0.0000       0.259045         7.0490 
 101   0.0000       0.260585         7.0909 
 102   0.0000       0.266760         7.2589 
 103   0.0000       0.266834         7.2609 
 104   0.0000       0.269803         7.3417 
 105   0.0000       0.271850         7.3974 
 106   0.0000       0.277853         7.5608 
 107   0.0000       0.284808         7.7500 
 108   0.0000       0.301179         8.1955 
 109   0.0000       0.304327         8.2812 
 110   0.0000       0.310437         8.4474 
 111   0.0000       0.310774         8.4566 
 112   0.0000       0.337259         9.1773 
 113   0.0000       0.341413         9.2903 
 114   0.0000       0.346450         9.4274 
 115   0.0000       0.352243         9.5850 
 116   0.0000       0.413627        11.2554 
 117   0.0000       0.417396        11.3579 
 118   0.0000       0.429172        11.6784 
 119   0.0000       0.429848        11.6968 
-------
TIMINGS
-------

Total SCF time: 0 days 0 hours 0 min 0 sec 

Total time                  ....       0.129 sec
Sum of individual times     ....       0.093 sec  ( 72.4%)

Fock matrix formation       ....       0.044 sec  ( 34.3%)
Diagonalization             ....       0.025 sec  ( 19.7%)
Density matrix formation    ....       0.005 sec  (  3.9%)
Population analysis         ....       0.000 sec  (  0.0%)
Initial guess               ....       0.003 sec  (  2.6%)
Orbital Transformation      ....       0.000 sec  (  0.0%)
Orbital Orthonormalization  ....       0.000 sec  (  0.0%)
DIIS solution               ....       0.010 sec  (  7.7%)
SOSCF solution              ....       0.005 sec  (  4.1%)

-------------------------   --------------------
FINAL SINGLE POINT ENERGY       -17.378127697134
-------------------------   --------------------


                            ***************************************
                            *     ORCA property calculations      *
                            ***************************************

                                    ---------------------
                                    Active property flags
                                    ---------------------
   (+) Dipole Moment


------------------------------------------------------------------------------
                       ORCA ELECTRIC PROPERTIES CALCULATION
------------------------------------------------------------------------------

Dipole Moment Calculation                       ... on
Quadrupole Moment Calculation                   ... off
Polarizability Calculation                      ... off
GBWName                                         ... /Users/mattyjones/GoogleDrive/Boise/Code/MorphCT/tests/output_EZ/donor_polymer/chromophores/input_orca/pair/00002-00022.gbw
Electron density file                           ... /Users/mattyjones/GoogleDrive/Boise/Code/MorphCT/tests/output_EZ/donor_polymer/chromophores/input_orca/pair/00002-00022.scfp.tmp

-------------
DIPOLE MOMENT
-------------
                                X             Y             Z
Electronic contribution:    -17.42439     -11.51826      27.01494
Nuclear contribution   :      8.79381       6.29551     -14.33698
                        -----------------------------------------
Total Dipole Moment    :     -8.63058      -5.22275      12.67796
                        -----------------------------------------
Magnitude (a.u.)       :     16.20169
Magnitude (Debye)      :     41.18141


Timings for individual modules:

Sum of individual times         ...        0.225 sec (=   0.004 min)
STO integral calculation        ...        0.056 sec (=   0.001 min)  25.1 %
SCF iterations                  ...        0.168 sec (=   0.003 min)  74.9 %
                             ****ORCA TERMINATED NORMALLY****
TOTAL RUN TIME: 0 days 0 hours 0 minutes 0 seconds 553 msec

