
                                 *****************
                                 * O   R   C   A *
                                 *****************

           --- An Ab Initio, DFT and Semiempirical electronic structure package ---

                  #######################################################
                  #                        -***-                        #
                  #  Department of molecular theory and spectroscopy    #
                  #              Directorship: Frank Neese              #
                  # Max Planck Institute for Chemical Energy Conversion #
                  #                  D-45470 Muelheim/Ruhr              #
                  #                       Germany                       #
                  #                                                     #
                  #                  All rights reserved                #
                  #                        -***-                        #
                  #######################################################


                         Program Version 4.0.1.2 - RELEASE -


 With contributions from (in alphabetic order):
   Daniel Aravena         : Magnetic Properties
   Michael Atanasov       : Ab Initio Ligand Field Theory
   Ute Becker             : Parallelization
   Martin Brehm           : Molecular dynamics
   Dmytro Bykov           : SCF Hessian
   Vijay G. Chilkuri      : MRCI spin determinant printing
   Dipayan Datta          : RHF DLPNO-CCSD density
   Achintya Kumar Dutta   : EOM-CC, STEOM-CC
   Dmitry Ganyushin       : Spin-Orbit,Spin-Spin,Magnetic field MRCI
   Yang Guo               : DLPNO-NEVPT2, CIM, IAO-localization
   Andreas Hansen         : Spin unrestricted coupled pair/coupled cluster methods
   Lee Huntington         : MR-EOM, pCC
   Robert Izsak           : Overlap fitted RIJCOSX, COSX-SCS-MP3, EOM
   Christian Kollmar      : KDIIS, OOCD, Brueckner-CCSD(T), CCSD density
   Simone Kossmann        : Meta GGA functionals, TD-DFT gradient, OOMP2, MP2 Hessian
   Martin Krupicka        : AUTO-CI
   Dagmar Lenk            : GEPOL surface
   Dimitrios Liakos       : Extrapolation schemes; parallel MDCI
   Dimitrios Manganas     : ROCIS; embedding schemes
   Dimitrios Pantazis     : SARC Basis sets
   Taras Petrenko         : DFT Hessian,TD-DFT gradient, ASA, ECA, R-Raman, ABS, FL, XAS/XES, NRVS
   Peter Pinski           : DLPNO-MP2
   Christoph Reimann      : Effective Core Potentials
   Marius Retegan         : Local ZFS, SOC
   Christoph Riplinger    : Optimizer, TS searches, QM/MM, DLPNO-CCSD(T), (RO)-DLPNO pert. Triples
   Tobias Risthaus        : Range-separated hybrids, TD-DFT gradient, RPA, STAB
   Michael Roemelt        : Restricted open shell CIS
   Masaaki Saitow         : Open-shell DLPNO
   Barbara Sandhoefer     : DKH picture change effects
   Kantharuban Sivalingam : CASSCF convergence, NEVPT2, FIC-MRCI
   Georgi Stoychev        : AutoAux
   Boris Wezisla          : Elementary symmetry handling
   Frank Wennmohs         : Technical directorship


 We gratefully acknowledge several colleagues who have allowed us to
 interface, adapt or use parts of their codes:
   Stefan Grimme, W. Hujo, H. Kruse,             : VdW corrections, initial TS optimization,
                  C. Bannwarth                     DFT functionals, gCP, sTDA/sTD-DF
   Ed Valeev                                     : LibInt (2-el integral package), F12 methods
   Garnet Chan, S. Sharma, J. Yang, R. Olivares  : DMRG
   Ulf Ekstrom                                   : XCFun DFT Library
   Mihaly Kallay                                 : mrcc  (arbitrary order and MRCC methods)
   Andreas Klamt, Michael Diedenhofen            : otool_cosmo (COSMO solvation model)
   Jiri Pittner, Ondrej Demel                    : Mk-CCSD
   Frank Weinhold                                : gennbo (NPA and NBO analysis)
   Christopher J. Cramer and Donald G. Truhlar   : smd solvation model


 Your calculation uses the libint2 library for the computation of 2-el integrals
 For citations please refer to: http://libint.valeyev.net

 This ORCA versions uses:
   CBLAS   interface :  Fast vector & matrix operations
   LAPACKE interface :  Fast linear algebra routines
   SCALAPACK package :  Parallel linear algebra routines


leaving
Your calculation utilizes the basis: def2-SVP
   F. Weigend and R. Ahlrichs, Phys. Chem. Chem. Phys. 7, 3297 (2005).

================================================================================
                                        WARNINGS
                       Please study these warnings very carefully!
================================================================================

Warning: TCutStore was < 0. Adjusted to Thresh (uncritical)

WARNING: Direct SCF is incompatible with Method<>HF and Method<>DFT
  ===> : conventional SCF is chosen

WARNING: The NDO methods need Guess=HUECKEL or Guess=HCORE or Guess=MOREAD
  ===> : Guess is set to Hueckel

WARNING: The NDO methods need %rel::SOCType==1
  ===> : %rel::SOCType is set to 1

WARNING: The NDO methods cannot have frozencore=1
  ===> : %method FrozenCore=0 end

INFO   : the flag for use of LIBINT has been found!

================================================================================
                                       INPUT FILE
================================================================================
NAME = /home/mattyjones/Software/morphct/tests/output_EZ/donor_polymer/chromophores/input_orca/pair/00007-00015.inp
|  1> # ================================================================
|  2> # Orca input file made by Matty Jones
|  3> # ================================================================
|  4> ! ZINDO/S 
|  5> ! NOPOP
|  6> ! NOMOPRINT
|  7> * xyz 0   1
|  8>  C  13.88087  9.49882  7.54160
|  9>  C  15.07380  9.73788  6.85775
| 10>  C  16.23994  9.26085  7.53366
| 11>  C  15.96644  8.64199  8.75739
| 12>  S  14.31935  8.71654  8.93620
| 13>  H  15.28457  10.85152  6.50510
| 14>  C  17.65558  9.52461  6.76955
| 15>  C  17.61922  11.09891  6.00690
| 16>  C  18.58352  12.16046  5.04475
| 17>  H  19.02791  12.96628  5.73602
| 18>  H  19.42212  11.55470  4.54808
| 19>  H  16.78735  10.88505  5.22231
| 20>  H  17.25071  11.78749  6.85385
| 21>  H  18.53737  9.53137  7.51925
| 22>  H  17.84287  8.73585  5.95038
| 23>  C  17.60786  12.86019  3.92219
| 24>  C  18.05340  14.23718  3.03277
| 25>  C  18.75896  14.11606  1.50934
| 26>  H  18.93428  15.18529  1.09563
| 27>  H  18.04910  13.54219  0.79853
| 28>  H  19.76995  13.56274  1.59312
| 29>  H  17.07531  14.82068  2.87782
| 30>  H  18.77664  14.83956  3.69645
| 31>  H  17.38118  12.04899  3.12256
| 32>  H  16.60788  13.13705  4.44139
| 33>  C  -16.12065  -7.71117  -7.16383
| 34>  C  -16.03822  -8.84722  -6.35729
| 35>  C  -15.91336  -8.56439  -4.96134
| 36>  C  -15.89711  -7.19812  -4.66409
| 37>  S  -16.03614  -6.42284  -6.12355
| 38>  H  -15.62557  -9.83075  -6.80587
| 39>  C  -15.83885  -9.90087  -4.06294
| 40>  C  -17.20014  -10.85555  -4.65796
| 41>  C  -17.99447  -12.37066  -4.50204
| 42>  H  -19.12751  -12.15634  -4.44140
| 43>  H  -17.64172  -12.85558  -3.51819
| 44>  H  -16.95473  -10.93396  -5.78228
| 45>  H  -18.07315  -10.10865  -4.50448
| 46>  H  -15.96627  -9.70097  -2.93850
| 47>  H  -14.86146  -10.48776  -4.27415
| 48>  C  -17.70104  -13.37773  -5.75733
| 49>  C  -18.78992  -14.66624  -5.87839
| 50>  C  -18.36480  -16.01272  -4.97560
| 51>  H  -19.01999  -16.91062  -5.29887
| 52>  H  -18.53989  -15.78817  -3.85344
| 53>  H  -17.24894  -16.26207  -5.15327
| 54>  H  -18.84894  -14.97951  -6.98703
| 55>  H  -19.82619  -14.30168  -5.53057
| 56>  H  -16.63620  -13.81464  -5.66675
| 57>  H  -17.77712  -12.79036  -6.75221
| 58>  H  12.90112  9.76189  7.23423
| 59>  H  16.66549  8.21468  9.42994
| 60>  H  -16.21697  -7.67881  -8.21895
| 61>  H  -15.81346  -6.75146  -3.70644
| 62> *
| 63> 
| 64>                          ****END OF INPUT****
================================================================================

                       ****************************
                       * Single Point Calculation *
                       ****************************

---------------------------------
CARTESIAN COORDINATES (ANGSTROEM)
---------------------------------
  C     13.880870    9.498820    7.541600
  C     15.073800    9.737880    6.857750
  C     16.239940    9.260850    7.533660
  C     15.966440    8.641990    8.757390
  S     14.319350    8.716540    8.936200
  H     15.284570   10.851520    6.505100
  C     17.655580    9.524610    6.769550
  C     17.619220   11.098910    6.006900
  C     18.583520   12.160460    5.044750
  H     19.027910   12.966280    5.736020
  H     19.422120   11.554700    4.548080
  H     16.787350   10.885050    5.222310
  H     17.250710   11.787490    6.853850
  H     18.537370    9.531370    7.519250
  H     17.842870    8.735850    5.950380
  C     17.607860   12.860190    3.922190
  C     18.053400   14.237180    3.032770
  C     18.758960   14.116060    1.509340
  H     18.934280   15.185290    1.095630
  H     18.049100   13.542190    0.798530
  H     19.769950   13.562740    1.593120
  H     17.075310   14.820680    2.877820
  H     18.776640   14.839560    3.696450
  H     17.381180   12.048990    3.122560
  H     16.607880   13.137050    4.441390
  C    -16.120650   -7.711170   -7.163830
  C    -16.038220   -8.847220   -6.357290
  C    -15.913360   -8.564390   -4.961340
  C    -15.897110   -7.198120   -4.664090
  S    -16.036140   -6.422840   -6.123550
  H    -15.625570   -9.830750   -6.805870
  C    -15.838850   -9.900870   -4.062940
  C    -17.200140  -10.855550   -4.657960
  C    -17.994470  -12.370660   -4.502040
  H    -19.127510  -12.156340   -4.441400
  H    -17.641720  -12.855580   -3.518190
  H    -16.954730  -10.933960   -5.782280
  H    -18.073150  -10.108650   -4.504480
  H    -15.966270   -9.700970   -2.938500
  H    -14.861460  -10.487760   -4.274150
  C    -17.701040  -13.377730   -5.757330
  C    -18.789920  -14.666240   -5.878390
  C    -18.364800  -16.012720   -4.975600
  H    -19.019990  -16.910620   -5.298870
  H    -18.539890  -15.788170   -3.853440
  H    -17.248940  -16.262070   -5.153270
  H    -18.848940  -14.979510   -6.987030
  H    -19.826190  -14.301680   -5.530570
  H    -16.636200  -13.814640   -5.666750
  H    -17.777120  -12.790360   -6.752210
  H     12.901120    9.761890    7.234230
  H     16.665490    8.214680    9.429940
  H    -16.216970   -7.678810   -8.218950
  H    -15.813460   -6.751460   -3.706440

----------------------------
CARTESIAN COORDINATES (A.U.)
----------------------------
  NO LB      ZA    FRAG     MASS         X           Y           Z
   0 C     4.0000    0    12.011   26.231043   17.950168   14.251559
   1 C     4.0000    0    12.011   28.485354   18.401926   12.959269
   2 C     4.0000    0    12.011   30.689039   17.500470   14.236554
   3 C     4.0000    0    12.011   30.172199   16.330994   16.549069
   4 S     6.0000    0    32.060   27.059650   16.471873   16.886971
   5 H     1.0000    0     1.008   28.883651   20.506401   12.292857
   6 C     4.0000    0    12.011   33.364211   17.998904   12.792596
   7 C     4.0000    0    12.011   33.295500   20.973900   11.351396
   8 C     4.0000    0    12.011   35.117763   22.979939    9.533196
   9 H     1.0000    0     1.008   35.957539   24.502718   10.839507
  10 H     1.0000    0     1.008   36.702488   21.835219    8.594626
  11 H     1.0000    0     1.008   31.723494   20.569763    9.868736
  12 H     1.0000    0     1.008   32.599118   22.275128   12.951899
  13 H     1.0000    0     1.008   35.030553   18.011679   14.209323
  14 H     1.0000    0     1.008   33.718138   16.508364   11.244589
  15 C     4.0000    0    12.011   33.274033   24.302237    7.411865
  16 C     4.0000    0    12.011   34.115982   26.904371    5.731105
  17 C     4.0000    0    12.011   35.449297   26.675487    2.852239
  18 H     1.0000    0     1.008   35.780604   28.696039    2.070441
  19 H     1.0000    0     1.008   34.107856   25.591030    1.509003
  20 H     1.0000    0     1.008   37.359791   25.629864    3.010560
  21 H     1.0000    0     1.008   32.267660   28.007026    5.438292
  22 H     1.0000    0     1.008   35.482707   28.042704    6.985278
  23 H     1.0000    0     1.008   32.845670   22.769291    5.900783
  24 H     1.0000    0     1.008   31.384345   24.825427    8.393011
  25 C     4.0000    0    12.011  -30.463614  -14.571999  -13.537677
  26 C     4.0000    0    12.011  -30.307843  -16.718823  -12.013537
  27 C     4.0000    0    12.011  -30.071892  -16.184352   -9.375574
  28 C     4.0000    0    12.011  -30.041184  -13.602475   -8.813853
  29 S     6.0000    0    32.060  -30.303913  -12.137409  -11.571832
  30 H     1.0000    0     1.008  -29.528048  -18.577425  -12.861230
  31 C     4.0000    0    12.011  -29.931089  -18.709933   -7.677844
  32 C     4.0000    0    12.011  -32.503554  -20.514017   -8.802269
  33 C     4.0000    0    12.011  -34.004620  -23.377159   -8.507623
  34 H     1.0000    0     1.008  -36.145756  -22.972153   -8.393030
  35 H     1.0000    0     1.008  -33.338019  -24.293525   -6.648416
  36 H     1.0000    0     1.008  -32.039796  -20.662190  -10.926926
  37 H     1.0000    0     1.008  -34.153304  -19.102580   -8.512234
  38 H     1.0000    0     1.008  -30.171878  -18.332177   -5.552960
  39 H     1.0000    0     1.008  -28.084089  -19.818994   -8.076973
  40 C     4.0000    0    12.011  -33.450118  -25.280246  -10.879777
  41 C     4.0000    0    12.011  -35.507803  -27.715177  -11.108547
  42 C     4.0000    0    12.011  -34.704443  -30.259655   -9.402521
  43 H     1.0000    0     1.008  -35.942572  -31.956441  -10.013413
  44 H     1.0000    0     1.008  -35.035315  -29.835317   -7.281946
  45 H     1.0000    0     1.008  -32.595773  -30.730859   -9.738269
  46 H     1.0000    0     1.008  -35.619335  -28.307172  -13.203573
  47 H     1.0000    0     1.008  -37.466069  -27.026258  -10.451263
  48 H     1.0000    0     1.008  -31.437862  -26.105886  -10.708606
  49 H     1.0000    0     1.008  -33.593888  -24.170278  -12.759828
  50 H     1.0000    0     1.008   24.379584   18.447299   13.670713
  51 H     1.0000    0     1.008   31.493212   15.523495   17.820004
  52 H     1.0000    0     1.008  -30.645632  -14.510848  -15.531565
  53 H     1.0000    0     1.008  -29.883109  -12.758410   -7.004157

--------------------------------
INTERNAL COORDINATES (ANGSTROEM)
--------------------------------
 C      0   0   0     0.000000000000     0.00000000     0.00000000
 C      1   0   0     1.395665608590     0.00000000     0.00000000
 C      2   1   0     1.429788253064   114.10118085     0.00000000
 C      3   2   1     1.398322231283   113.69345153     0.00000000
 S      1   2   3     1.658051829347   105.47997395     0.00000000
 H      2   1   3     1.187004660901   117.26082371   232.34784797
 C      3   2   1     1.630174849303   115.63914446   180.17616904
 C      7   3   2     1.749679274067   109.38074005    38.36790094
 C      8   7   3     1.726990305416   141.65650153   180.23680725
 H      9   8   7     1.150948546808   108.13984339   258.65655668
 H      9   8   7     1.147552276151   108.94722475    18.58725492
 H      8   7   3     1.163325089818    98.24610624   294.16553942
 H      8   7   3     1.152070457481   102.94335966    49.26159062
 H      7   3   2     1.157432240652   111.03422966   156.26894951
 H      7   3   2     1.152501353839   111.31830447   279.07293104
 C      9   8   7     1.643677420329   108.10318071   139.64528000
 C     16   9   8     1.698727549697   123.16000615   164.41427512
 C     17  16   9     1.683248030713   121.70047711    94.12580813
 H     18  17  16     1.159804233222   108.65473601   178.02018117
 H     18  17  16     1.156926468104   109.54601466    58.65048110
 H     18  17  16     1.155544413210   109.60697906   297.73343123
 H     17  16   9     1.149409326828   105.00480833   213.83292998
 H     17  16   9     1.151698269687   106.67599959   330.88622260
 H     16   9   8     1.161394592419   106.78196404   285.58231437
 H     16   9   8     1.160250016160   107.91205846    41.30239277
 C      1   2   3    37.583568611767   124.68217662   233.08100273
 C     26   1   2     1.395675850260    95.70889228   112.67931226
 C     27  26   1     1.429775937341   114.10150155    50.07507104
 C     28  27  26     1.398325905467   113.69330211     0.00000000
 S     26   1   2     1.658046624013    50.06018909   218.11314019
 H     27  26   1     1.157080507052   119.26941023   256.16239983
 C     28  27  26     1.612095868892   112.59063246   179.31490685
 C     32  28  27     1.765948234490   102.98981441   310.94534987
 C     33  32  28     1.717797865699   143.38741181   176.40791106
 H     34  33  32     1.154725038093   107.14505074   134.82150688
 H     34  33  32     1.152189564004   107.88722555    17.01413690
 H     33  32  28     1.153459864321   101.60543897    56.82911838
 H     33  32  28     1.159121296716   100.81384276   304.15807122
 H     32  28  27     1.149156725604   113.32601051   192.42221527
 H     32  28  27     1.159457092048   110.92106836    66.66980990
 C     34  33  32     1.635861893284   112.97853821   255.25686655
 C     41  34  33     1.691322913609   114.10722250   196.98517779
 C     42  41  34     1.675937107680   114.21792595   272.80961921
 H     43  42  41     1.157584484606   109.21911017   192.64447373
 H     43  42  41     1.157722884027   109.14366740    72.83275847
 H     43  42  41     1.157102238784   109.57499162   312.73632936
 H     42  41  34     1.153561486398   107.97601344   152.40017644
 H     42  41  34     1.152275253097   108.44240892    34.11079397
 H     41  34  33     1.154547231645   109.76722275    75.45308712
 H     41  34  33     1.157833277160   109.58883282   316.19090820
 H      1   2   3     1.059996322777   127.26053457   179.99981356
 H      4   3   2     1.059994453335   127.20627742   179.99980678
 H     26   1   2     1.060001380376   116.61723374   335.73542677
 H     29  28  27     1.059998113489   127.20622792   179.99953382

---------------------------
INTERNAL COORDINATES (A.U.)
---------------------------
 C      0   0   0     0.000000000000     0.00000000     0.00000000
 C      1   0   0     2.637425774767     0.00000000     0.00000000
 C      2   1   0     2.701908227789   114.10118085     0.00000000
 C      3   2   1     2.642446064098   113.69345153     0.00000000
 S      1   2   3     3.133263873312   105.47997395     0.00000000
 H      2   1   3     2.243113728790   117.26082371   232.34784797
 C      3   2   1     3.080584015589   115.63914446   180.17616904
 C      7   3   2     3.306414650185   109.38074005    38.36790094
 C      8   7   3     3.263538713173   141.65650153   180.23680725
 H      9   8   7     2.174977547702   108.13984339   258.65655668
 H      9   8   7     2.168559526284   108.94722475    18.58725492
 H      8   7   3     2.198365824475    98.24610624   294.16553942
 H      8   7   3     2.177097651620   102.94335966    49.26159062
 H      7   3   2     2.187229953403   111.03422966   156.26894951
 H      7   3   2     2.177911927729   111.31830447   279.07293104
 C      9   8   7     3.106100176932   108.10318071   139.64528000
 C     16   9   8     3.210129845075   123.16000615   164.41427512
 C     17  16   9     3.180877793510   121.70047711    94.12580813
 H     18  17  16     2.191712369752   108.65473601   178.02018117
 H     18  17  16     2.186274181802   109.54601466    58.65048110
 H     18  17  16     2.183662476549   109.60697906   297.73343123
 H     17  16   9     2.172068843480   105.00480833   213.83292998
 H     17  16   9     2.176394318619   106.67599959   330.88622260
 H     16   9   8     2.194717713089   106.78196404   285.58231437
 H     16   9   8     2.192554777421   107.91205846    41.30239277
 C      1   2   3    71.022651811679   124.68217662   233.08100273
 C     26   1   2     2.637445128720    95.70889228   112.67931226
 C     27  26   1     2.701884954445   114.10150155    50.07507104
 C     28  27  26     2.642453007300   113.69330211     0.00000000
 S     26   1   2     3.133254036657    50.06018909   218.11314019
 H     27  26   1     2.186565273227   119.26941023   256.16239983
 C     28  27  26     3.046419693832   112.59063246   179.31490685
 C     32  28  27     3.337158529869   102.98981441   310.94534987
 C     33  32  28     3.246167519606   143.38741181   176.40791106
 H     34  33  32     2.182114081978   107.14505074   134.82150688
 H     34  33  32     2.177322730330   107.88722555    17.01413690
 H     33  32  28     2.179723250037   101.60543897    56.82911838
 H     33  32  28     2.190421806788   100.81384276   304.15807122
 H     32  28  27     2.171591496345   113.32601051   192.42221527
 H     32  28  27     2.191056368003   110.92106836    66.66980990
 C     34  33  32     3.091330971225   112.97853821   255.25686655
 C     41  34  33     3.196137110747   114.10722250   196.98517779
 C     42  41  34     3.167062151192   114.21792595   272.80961921
 H     43  42  41     2.187517652781   109.21911017   192.64447373
 H     43  42  41     2.187779189785   109.14366740    72.83275847
 H     43  42  41     2.186606340250   109.57499162   312.73632936
 H     42  41  34     2.179915287931   107.97601344   152.40017644
 H     42  41  34     2.177484659248   108.44240892    34.11079397
 H     41  34  33     2.181778076487   109.76722275    75.45308712
 H     41  34  33     2.187987802574   109.58883282   316.19090820
 H      1   2   3     2.003102753011   127.26053457   179.99981356
 H      4   3   2     2.003099220278   127.20627742   179.99980678
 H     26   1   2     2.003112310490   116.61723374   335.73542677
 H     29  28  27     2.003106136967   127.20622792   179.99953382

----------------------------
SLATER BASIS SET DIM= 120
----------------------------
  0 C     2 shells
 l=0 nsto= 1
    2       1.625000000000        1.000000000000
 l=1 nsto= 1
    2       1.625000000000        1.000000000000
  1 C     2 shells
 l=0 nsto= 1
    2       1.625000000000        1.000000000000
 l=1 nsto= 1
    2       1.625000000000        1.000000000000
  2 C     2 shells
 l=0 nsto= 1
    2       1.625000000000        1.000000000000
 l=1 nsto= 1
    2       1.625000000000        1.000000000000
  3 C     2 shells
 l=0 nsto= 1
    2       1.625000000000        1.000000000000
 l=1 nsto= 1
    2       1.625000000000        1.000000000000
  4 S     2 shells
 l=0 nsto= 1
    3       1.925000000000        1.000000000000
 l=1 nsto= 1
    3       1.925000000000        1.000000000000
  5 H     1 shells
 l=0 nsto= 1
    1       1.200000000000        1.000000000000
  6 C     2 shells
 l=0 nsto= 1
    2       1.625000000000        1.000000000000
 l=1 nsto= 1
    2       1.625000000000        1.000000000000
  7 C     2 shells
 l=0 nsto= 1
    2       1.625000000000        1.000000000000
 l=1 nsto= 1
    2       1.625000000000        1.000000000000
  8 C     2 shells
 l=0 nsto= 1
    2       1.625000000000        1.000000000000
 l=1 nsto= 1
    2       1.625000000000        1.000000000000
  9 H     1 shells
 l=0 nsto= 1
    1       1.200000000000        1.000000000000
 10 H     1 shells
 l=0 nsto= 1
    1       1.200000000000        1.000000000000
 11 H     1 shells
 l=0 nsto= 1
    1       1.200000000000        1.000000000000
 12 H     1 shells
 l=0 nsto= 1
    1       1.200000000000        1.000000000000
 13 H     1 shells
 l=0 nsto= 1
    1       1.200000000000        1.000000000000
 14 H     1 shells
 l=0 nsto= 1
    1       1.200000000000        1.000000000000
 15 C     2 shells
 l=0 nsto= 1
    2       1.625000000000        1.000000000000
 l=1 nsto= 1
    2       1.625000000000        1.000000000000
 16 C     2 shells
 l=0 nsto= 1
    2       1.625000000000        1.000000000000
 l=1 nsto= 1
    2       1.625000000000        1.000000000000
 17 C     2 shells
 l=0 nsto= 1
    2       1.625000000000        1.000000000000
 l=1 nsto= 1
    2       1.625000000000        1.000000000000
 18 H     1 shells
 l=0 nsto= 1
    1       1.200000000000        1.000000000000
 19 H     1 shells
 l=0 nsto= 1
    1       1.200000000000        1.000000000000
 20 H     1 shells
 l=0 nsto= 1
    1       1.200000000000        1.000000000000
 21 H     1 shells
 l=0 nsto= 1
    1       1.200000000000        1.000000000000
 22 H     1 shells
 l=0 nsto= 1
    1       1.200000000000        1.000000000000
 23 H     1 shells
 l=0 nsto= 1
    1       1.200000000000        1.000000000000
 24 H     1 shells
 l=0 nsto= 1
    1       1.200000000000        1.000000000000
 25 C     2 shells
 l=0 nsto= 1
    2       1.625000000000        1.000000000000
 l=1 nsto= 1
    2       1.625000000000        1.000000000000
 26 C     2 shells
 l=0 nsto= 1
    2       1.625000000000        1.000000000000
 l=1 nsto= 1
    2       1.625000000000        1.000000000000
 27 C     2 shells
 l=0 nsto= 1
    2       1.625000000000        1.000000000000
 l=1 nsto= 1
    2       1.625000000000        1.000000000000
 28 C     2 shells
 l=0 nsto= 1
    2       1.625000000000        1.000000000000
 l=1 nsto= 1
    2       1.625000000000        1.000000000000
 29 S     2 shells
 l=0 nsto= 1
    3       1.925000000000        1.000000000000
 l=1 nsto= 1
    3       1.925000000000        1.000000000000
 30 H     1 shells
 l=0 nsto= 1
    1       1.200000000000        1.000000000000
 31 C     2 shells
 l=0 nsto= 1
    2       1.625000000000        1.000000000000
 l=1 nsto= 1
    2       1.625000000000        1.000000000000
 32 C     2 shells
 l=0 nsto= 1
    2       1.625000000000        1.000000000000
 l=1 nsto= 1
    2       1.625000000000        1.000000000000
 33 C     2 shells
 l=0 nsto= 1
    2       1.625000000000        1.000000000000
 l=1 nsto= 1
    2       1.625000000000        1.000000000000
 34 H     1 shells
 l=0 nsto= 1
    1       1.200000000000        1.000000000000
 35 H     1 shells
 l=0 nsto= 1
    1       1.200000000000        1.000000000000
 36 H     1 shells
 l=0 nsto= 1
    1       1.200000000000        1.000000000000
 37 H     1 shells
 l=0 nsto= 1
    1       1.200000000000        1.000000000000
 38 H     1 shells
 l=0 nsto= 1
    1       1.200000000000        1.000000000000
 39 H     1 shells
 l=0 nsto= 1
    1       1.200000000000        1.000000000000
 40 C     2 shells
 l=0 nsto= 1
    2       1.625000000000        1.000000000000
 l=1 nsto= 1
    2       1.625000000000        1.000000000000
 41 C     2 shells
 l=0 nsto= 1
    2       1.625000000000        1.000000000000
 l=1 nsto= 1
    2       1.625000000000        1.000000000000
 42 C     2 shells
 l=0 nsto= 1
    2       1.625000000000        1.000000000000
 l=1 nsto= 1
    2       1.625000000000        1.000000000000
 43 H     1 shells
 l=0 nsto= 1
    1       1.200000000000        1.000000000000
 44 H     1 shells
 l=0 nsto= 1
    1       1.200000000000        1.000000000000
 45 H     1 shells
 l=0 nsto= 1
    1       1.200000000000        1.000000000000
 46 H     1 shells
 l=0 nsto= 1
    1       1.200000000000        1.000000000000
 47 H     1 shells
 l=0 nsto= 1
    1       1.200000000000        1.000000000000
 48 H     1 shells
 l=0 nsto= 1
    1       1.200000000000        1.000000000000
 49 H     1 shells
 l=0 nsto= 1
    1       1.200000000000        1.000000000000
 50 H     1 shells
 l=0 nsto= 1
    1       1.200000000000        1.000000000000
 51 H     1 shells
 l=0 nsto= 1
    1       1.200000000000        1.000000000000
 52 H     1 shells
 l=0 nsto= 1
    1       1.200000000000        1.000000000000
 53 H     1 shells
 l=0 nsto= 1
    1       1.200000000000        1.000000000000
------------------------------------------------------------------------------
                           ORCA NDO INTEGRAL CALCULATION
------------------------------------------------------------------------------

--------------
NDO PARAMETERS
--------------

Gamma integral treatment              ... Mataga-Nishimoto
Nuclear repulsuion treatment          ... Direct (ZA*ZB/RAB)
Interaction factors:
s-s (sigma) =    1.0000
s-p (sigma) =    1.0000
s-d (sigma) =    1.0000
p-p (sigma) =    1.2670  p-p(pi) =    0.5850
p-d (sigma) =    1.0000  p-d(pi) =    1.0000
d-d (sigma) =    1.0000  d-d(pi) =    1.0000 d-d (delta) =    1.0000

fGamma parameter for Mataga-Nishimoto gamma integrals:    1.2000

--------------------------
Parameters for Element H :
--------------------------
 One-electron parameters (in eV)
  U(s)  =   -13.060000 Beta(s) =    12.000000 Neff(s) =     1.000000
 One-center electron repulsion parameters (in eV)
  G(s,s)=    12.850000
--------------------------
Parameters for Element C :
--------------------------
 One-electron parameters (in eV)
  U(s)  =   -50.870766 Beta(s) =    17.000000 Neff(s) =     2.000000
  U(p)  =   -41.599980 Beta(p) =    17.000000 Neff(p) =     2.000000 
 One-center electron repulsion parameters (in eV)
  G(s,s)=    11.110000
  G(s,p)=    11.110000 G(p,p)  =    11.110000
 Slater-Condon parameters (in eV)
 F2(p,p)=     4.5098 G1(s,p)=    6.8977
--------------------------
Parameters for Element S :
--------------------------
 One-electron parameters (in eV)
  U(s)  =   -69.509597 Beta(s) =    15.000000 Neff(s) =     2.000000
  U(p)  =   -60.725746 Beta(p) =    15.000000 Neff(p) =     4.000000 
 One-center electron repulsion parameters (in eV)
  G(s,s)=    10.090000
  G(s,p)=    10.090000 G(p,p)  =    10.090000
 Slater-Condon parameters (in eV)
 F2(p,p)=     4.5377 G1(s,p)=    3.0756

 Number of atoms                    ....   54
 Number of basis functions          ....  120

 Overlap integrals                  .... done
 One electron matrix                .... done
 Nuclear repulsion                  .... done
 Integral list                      .... done
 Electron-electron repulsion        .... done
-------------------------------------------------------------------------------
                                 ORCA SCF
-------------------------------------------------------------------------------

------------
SCF SETTINGS
------------
Hamiltonian:
 ZDO-Hamiltonian        Method          .... INDO


General Settings:
 Integral files         IntName         .... /home/mattyjones/Software/morphct/tests/output_EZ/donor_polymer/chromophores/input_orca/pair/00007-00015
 Hartree-Fock type      HFTyp           .... RHF
 Total Charge           Charge          ....    0
 Multiplicity           Mult            ....    1
 Number of Electrons    NEL             ....  124
 Basis Dimension        Dim             ....  120
 Nuclear Repulsion      ENuc            ....    632.1667326611 Eh

Convergence Acceleration:
 DIIS                   CNVDIIS         .... on
   Start iteration      DIISMaxIt       ....    12
   Startup error        DIISStart       ....  0.200000
   # of expansion vecs  DIISMaxEq       ....     5
   Bias factor          DIISBfac        ....   1.050
   Max. coefficient     DIISMaxC        ....  10.000
 Newton-Raphson         CNVNR           .... off
 SOSCF                  CNVSOSCF        .... on
   Start iteration      SOSCFMaxIt      ....   150
   Startup grad/error   SOSCFStart      ....  0.003300
 Level Shifting         CNVShift        .... on
   Level shift para.    LevelShift      ....    0.2500
   Turn off err/grad.   ShiftErr        ....    0.0010
 Zerner damping         CNVZerner       .... off
 Static damping         CNVDamp         .... on
   Fraction old density DampFac         ....    0.7000
   Max. Damping (<1)    DampMax         ....    0.9800
   Min. Damping (>=0)   DampMin         ....    0.0000
   Turn off err/grad.   DampErr         ....    0.1000
 Fernandez-Rico         CNVRico         .... off

SCF Procedure:
 Maximum # iterations   MaxIter         ....   125
 SCF integral mode      SCFMode         .... Conventional
 Integral Buffer length BufferLength    .... 1048576
 Integral index format  IndFormat       ....     0
 Integral value format  ValFormat       ....     0
 Integral Storage       Thresh          ....  1.000e-08 Eh

Convergence Tolerance:
 Convergence Check Mode ConvCheckMode   .... Total+1el-Energy
 Convergence forced     ConvForced      .... 0
 Energy Change          TolE            ....  1.000e-06 Eh
 1-El. energy change                    ....  1.000e-03 Eh
 Orbital Gradient       TolG            ....  5.000e-05
 Orbital Rotation angle TolX            ....  5.000e-05
 DIIS Error             TolErr          ....  1.000e-06


Diagonalization of the overlap matrix:
Smallest eigenvalue                        ... 1.678e-01
Time for diagonalization                   ...    0.003 sec
Threshold for overlap eigenvalues          ... 1.000e-08
Number of eigenvalues below threshold      ... 0
Time for construction of square roots      ...    0.000 sec
Total time needed                          ...    0.004 sec

-------------------------------
INITIAL GUESS: EXTENDED HUECKEL
-------------------------------
EHT matrix was read from disk
EHT matrix was diagonalized
Initial density was built
                      ------------------
                      INITIAL GUESS DONE
                      ------------------

 InCore treatment chosen:
   Memory dedicated               ...    1024 MB
   Memory needed                  ...      0 MB
   Number of tiny    integrals    ...       0
   Number of small   integrals    ...       0
   Number of regular integrals    ...    7392

--------------
SCF ITERATIONS
--------------
ITER       Energy         Delta-E        Max-DP      RMS-DP      [F,P]     Damp
  0    -22.0679027293   0.000000000000 0.04781925  0.00150883  0.1222676 0.7000
  1    -22.1129587979  -0.045056068637 0.04636373  0.00142847  0.0837151 0.7000
                               ***Turning on DIIS***
  2    -22.1462060673  -0.033247269372 0.12199530  0.00367777  0.0517176 0.0000
  3    -22.2296122928  -0.083406225470 0.02411106  0.00077745  0.0225129 0.0000
  4    -22.2154660931   0.014146199733 0.01730039  0.00054755  0.0096620 0.0000
  5    -22.2346850374  -0.019218944391 0.01218486  0.00037130  0.0057520 0.0000
  6    -22.2371784088  -0.002493371320 0.00853305  0.00026739  0.0032193 0.0000
  7    -22.2339186772   0.003259731537 0.00527400  0.00015741  0.0018994 0.0000
                      *** Initiating the SOSCF procedure ***
                           *** Shutting down DIIS ***
                      *** Re-Reading the Fockian *** 
                      *** Removing any level shift *** 
ITER      Energy       Delta-E        Grad      Rot      Max-DP    RMS-DP
  8    -22.23277888   0.0011397987  0.001911  0.001911  0.002888  0.000083
  9    -22.23131507   0.0014638089  0.000529  0.001542  0.001315  0.000038
 10    -22.23132038  -0.0000053144  0.000247  0.001672  0.001581  0.000044
 11    -22.23132246  -0.0000020780  0.000040  0.000098  0.000192  0.000005
                 **** Energy Check signals convergence ****
              ***Rediagonalizing the Fockian in SOSCF/NRSCF***

               *****************************************************
               *                     SUCCESS                       *
               *           SCF CONVERGED AFTER  12 CYCLES          *
               *****************************************************


----------------
TOTAL SCF ENERGY
----------------

Total Energy       :          -22.23132252 Eh            -604.94504 eV

Components:
Nuclear Repulsion  :          632.16673266 Eh           17202.13134 eV
Electronic Energy  :         -654.39805518 Eh          -17807.07638 eV
One Electron Energy:        -1218.65386603 Eh          -33161.25758 eV
Two Electron Energy:          564.25581085 Eh           15354.18120 eV


---------------
SCF CONVERGENCE
---------------

  Last Energy change         ...   -5.6443e-08  Tolerance :   1.0000e-06
  Last MAX-Density change    ...    6.6202e-05  Tolerance :   1.0000e-05
  Last RMS-Density change    ...    1.6881e-06  Tolerance :   1.0000e-06
  Last Orbital Gradient      ...    1.7360e-05  Tolerance :   5.0000e-05
  Last Orbital Rotation      ...    4.3192e-05  Tolerance :   5.0000e-05

             **** THE GBW FILE WAS UPDATED (/home/mattyjones/Software/morphct/tests/output_EZ/donor_polymer/chromophores/input_orca/pair/00007-00015.gbw) ****
             **** DENSITY FILE WAS UPDATED (/home/mattyjones/Software/morphct/tests/output_EZ/donor_polymer/chromophores/input_orca/pair/00007-00015.scfp.tmp) ****
             **** ENERGY FILE WAS UPDATED (/home/mattyjones/Software/morphct/tests/output_EZ/donor_polymer/chromophores/input_orca/pair/00007-00015.en.tmp) ****
----------------
ORBITAL ENERGIES
----------------

  NO   OCC          E(Eh)            E(eV) 
   0   2.0000      -1.567322       -42.6490 
   1   2.0000      -1.567313       -42.6487 
   2   2.0000      -1.397026       -38.0150 
   3   2.0000      -1.388931       -37.7947 
   4   2.0000      -1.294118       -35.2147 
   5   2.0000      -1.287947       -35.0468 
   6   2.0000      -1.194931       -32.5157 
   7   2.0000      -1.189011       -32.3546 
   8   2.0000      -1.120032       -30.4776 
   9   2.0000      -1.118104       -30.4252 
  10   2.0000      -1.024379       -27.8748 
  11   2.0000      -1.021721       -27.8024 
  12   2.0000      -0.955593       -26.0030 
  13   2.0000      -0.946482       -25.7551 
  14   2.0000      -0.895002       -24.3543 
  15   2.0000      -0.893415       -24.3110 
  16   2.0000      -0.866808       -23.5870 
  17   2.0000      -0.861660       -23.4470 
  18   2.0000      -0.836579       -22.7645 
  19   2.0000      -0.828250       -22.5378 
  20   2.0000      -0.773750       -21.0548 
  21   2.0000      -0.756640       -20.5892 
  22   2.0000      -0.729238       -19.8436 
  23   2.0000      -0.724597       -19.7173 
  24   2.0000      -0.693350       -18.8670 
  25   2.0000      -0.690369       -18.7859 
  26   2.0000      -0.675565       -18.3831 
  27   2.0000      -0.671301       -18.2670 
  28   2.0000      -0.665039       -18.0966 
  29   2.0000      -0.657241       -17.8844 
  30   2.0000      -0.614825       -16.7302 
  31   2.0000      -0.609346       -16.5812 
  32   2.0000      -0.590154       -16.0589 
  33   2.0000      -0.587522       -15.9873 
  34   2.0000      -0.578721       -15.7478 
  35   2.0000      -0.575720       -15.6661 
  36   2.0000      -0.574722       -15.6390 
  37   2.0000      -0.567571       -15.4444 
  38   2.0000      -0.558556       -15.1991 
  39   2.0000      -0.555178       -15.1072 
  40   2.0000      -0.534558       -14.5460 
  41   2.0000      -0.526303       -14.3214 
  42   2.0000      -0.516829       -14.0636 
  43   2.0000      -0.513609       -13.9760 
  44   2.0000      -0.502099       -13.6628 
  45   2.0000      -0.498765       -13.5721 
  46   2.0000      -0.491029       -13.3616 
  47   2.0000      -0.489073       -13.3084 
  48   2.0000      -0.484779       -13.1915 
  49   2.0000      -0.483485       -13.1563 
  50   2.0000      -0.481066       -13.0905 
  51   2.0000      -0.470740       -12.8095 
  52   2.0000      -0.466806       -12.7024 
  53   2.0000      -0.465697       -12.6723 
  54   2.0000      -0.454551       -12.3690 
  55   2.0000      -0.449190       -12.2231 
  56   2.0000      -0.428255       -11.6534 
  57   2.0000      -0.412217       -11.2170 
  58   2.0000      -0.345948        -9.4137 
  59   2.0000      -0.342662        -9.3243 
  60   2.0000      -0.304921        -8.2973 
  61   2.0000      -0.304569        -8.2877 
  62   0.0000       0.000223         0.0061 
  63   0.0000       0.006579         0.1790 
  64   0.0000       0.050042         1.3617 
  65   0.0000       0.056515         1.5378 
  66   0.0000       0.061978         1.6865 
  67   0.0000       0.066475         1.8089 
  68   0.0000       0.088283         2.4023 
  69   0.0000       0.091127         2.4797 
  70   0.0000       0.104927         2.8552 
  71   0.0000       0.106056         2.8859 
  72   0.0000       0.107035         2.9126 
  73   0.0000       0.108315         2.9474 
  74   0.0000       0.123628         3.3641 
  75   0.0000       0.126197         3.4340 
  76   0.0000       0.143046         3.8925 
  77   0.0000       0.143795         3.9129 
  78   0.0000       0.156281         4.2526 
  79   0.0000       0.157854         4.2954 
  80   0.0000       0.167884         4.5684 
  81   0.0000       0.171417         4.6645 
  82   0.0000       0.174772         4.7558 
  83   0.0000       0.187366         5.0985 
  84   0.0000       0.200198         5.4477 
  85   0.0000       0.203235         5.5303 
  86   0.0000       0.220766         6.0073 
  87   0.0000       0.224411         6.1065 
  88   0.0000       0.234747         6.3878 
  89   0.0000       0.235645         6.4122 
  90   0.0000       0.238536         6.4909 
  91   0.0000       0.238976         6.5029 
  92   0.0000       0.239166         6.5080 
  93   0.0000       0.239444         6.5156 
  94   0.0000       0.239493         6.5169 
  95   0.0000       0.240180         6.5356 
  96   0.0000       0.242079         6.5873 
  97   0.0000       0.243071         6.6143 
  98   0.0000       0.244023         6.6402 
  99   0.0000       0.245214         6.6726 
 100   0.0000       0.246466         6.7067 
 101   0.0000       0.250200         6.8083 
 102   0.0000       0.252638         6.8746 
 103   0.0000       0.261568         7.1176 
 104   0.0000       0.264615         7.2005 
 105   0.0000       0.267250         7.2722 
 106   0.0000       0.283902         7.7254 
 107   0.0000       0.288233         7.8432 
 108   0.0000       0.308107         8.3840 
 109   0.0000       0.309666         8.4264 
 110   0.0000       0.311920         8.4878 
 111   0.0000       0.313503         8.5308 
 112   0.0000       0.327397         8.9089 
 113   0.0000       0.333335         9.0705 
 114   0.0000       0.351189         9.5563 
 115   0.0000       0.355025         9.6607 
 116   0.0000       0.418247        11.3811 
 117   0.0000       0.421605        11.4724 
 118   0.0000       0.423096        11.5130 
 119   0.0000       0.425736        11.5849 
-------
TIMINGS
-------

Total SCF time: 0 days 0 hours 0 min 0 sec 

Total time                  ....       0.119 sec
Sum of individual times     ....       0.094 sec  ( 79.1%)

Fock matrix formation       ....       0.047 sec  ( 39.8%)
Diagonalization             ....       0.028 sec  ( 23.4%)
Density matrix formation    ....       0.003 sec  (  2.8%)
Population analysis         ....       0.000 sec  (  0.0%)
Initial guess               ....       0.003 sec  (  2.6%)
Orbital Transformation      ....       0.000 sec  (  0.0%)
Orbital Orthonormalization  ....       0.000 sec  (  0.0%)
DIIS solution               ....       0.006 sec  (  4.8%)
SOSCF solution              ....       0.007 sec  (  5.7%)

-------------------------   --------------------
FINAL SINGLE POINT ENERGY       -22.231322518471
-------------------------   --------------------


                            ***************************************
                            *     ORCA property calculations      *
                            ***************************************

                                    ---------------------
                                    Active property flags
                                    ---------------------
   (+) Dipole Moment


------------------------------------------------------------------------------
                       ORCA ELECTRIC PROPERTIES CALCULATION
------------------------------------------------------------------------------

Dipole Moment Calculation                       ... on
Quadrupole Moment Calculation                   ... off
Polarizability Calculation                      ... off
GBWName                                         ... /home/mattyjones/Software/morphct/tests/output_EZ/donor_polymer/chromophores/input_orca/pair/00007-00015.gbw
Electron density file                           ... /home/mattyjones/Software/morphct/tests/output_EZ/donor_polymer/chromophores/input_orca/pair/00007-00015.scfp.tmp
The origin for moment calculation is the CENTER OF MASS  = (-0.325174,  0.500699  0.737128)

-------------
DIPOLE MOMENT
-------------
                                X             Y             Z
Electronic contribution:    -35.86277      61.62851      80.30741
Nuclear contribution   :     21.72505     -31.16067     -42.17926
                        -----------------------------------------
Total Dipole Moment    :    -14.13772      30.46784      38.12816
                        -----------------------------------------
Magnitude (a.u.)       :     50.81260
Magnitude (Debye)      :    129.15537


Timings for individual modules:

Sum of individual times         ...        0.159 sec (=   0.003 min)
STO integral calculation        ...        0.030 sec (=   0.001 min)  18.9 %
SCF iterations                  ...        0.129 sec (=   0.002 min)  81.1 %
                             ****ORCA TERMINATED NORMALLY****
TOTAL RUN TIME: 0 days 0 hours 0 minutes 0 seconds 468 msec

