
                                 *****************
                                 * O   R   C   A *
                                 *****************

           --- An Ab Initio, DFT and Semiempirical electronic structure package ---

                  #######################################################
                  #                        -***-                        #
                  #  Department of molecular theory and spectroscopy    #
                  #              Directorship: Frank Neese              #
                  # Max Planck Institute for Chemical Energy Conversion #
                  #                  D-45470 Muelheim/Ruhr              #
                  #                       Germany                       #
                  #                                                     #
                  #                  All rights reserved                #
                  #                        -***-                        #
                  #######################################################


                         Program Version 4.0.1.2 - RELEASE -


 With contributions from (in alphabetic order):
   Daniel Aravena         : Magnetic Properties
   Michael Atanasov       : Ab Initio Ligand Field Theory
   Ute Becker             : Parallelization
   Martin Brehm           : Molecular dynamics
   Dmytro Bykov           : SCF Hessian
   Vijay G. Chilkuri      : MRCI spin determinant printing
   Dipayan Datta          : RHF DLPNO-CCSD density
   Achintya Kumar Dutta   : EOM-CC, STEOM-CC
   Dmitry Ganyushin       : Spin-Orbit,Spin-Spin,Magnetic field MRCI
   Yang Guo               : DLPNO-NEVPT2, CIM, IAO-localization
   Andreas Hansen         : Spin unrestricted coupled pair/coupled cluster methods
   Lee Huntington         : MR-EOM, pCC
   Robert Izsak           : Overlap fitted RIJCOSX, COSX-SCS-MP3, EOM
   Christian Kollmar      : KDIIS, OOCD, Brueckner-CCSD(T), CCSD density
   Simone Kossmann        : Meta GGA functionals, TD-DFT gradient, OOMP2, MP2 Hessian
   Martin Krupicka        : AUTO-CI
   Dagmar Lenk            : GEPOL surface
   Dimitrios Liakos       : Extrapolation schemes; parallel MDCI
   Dimitrios Manganas     : ROCIS; embedding schemes
   Dimitrios Pantazis     : SARC Basis sets
   Taras Petrenko         : DFT Hessian,TD-DFT gradient, ASA, ECA, R-Raman, ABS, FL, XAS/XES, NRVS
   Peter Pinski           : DLPNO-MP2
   Christoph Reimann      : Effective Core Potentials
   Marius Retegan         : Local ZFS, SOC
   Christoph Riplinger    : Optimizer, TS searches, QM/MM, DLPNO-CCSD(T), (RO)-DLPNO pert. Triples
   Tobias Risthaus        : Range-separated hybrids, TD-DFT gradient, RPA, STAB
   Michael Roemelt        : Restricted open shell CIS
   Masaaki Saitow         : Open-shell DLPNO
   Barbara Sandhoefer     : DKH picture change effects
   Kantharuban Sivalingam : CASSCF convergence, NEVPT2, FIC-MRCI
   Georgi Stoychev        : AutoAux
   Boris Wezisla          : Elementary symmetry handling
   Frank Wennmohs         : Technical directorship


 We gratefully acknowledge several colleagues who have allowed us to
 interface, adapt or use parts of their codes:
   Stefan Grimme, W. Hujo, H. Kruse,             : VdW corrections, initial TS optimization,
                  C. Bannwarth                     DFT functionals, gCP, sTDA/sTD-DF
   Ed Valeev                                     : LibInt (2-el integral package), F12 methods
   Garnet Chan, S. Sharma, J. Yang, R. Olivares  : DMRG
   Ulf Ekstrom                                   : XCFun DFT Library
   Mihaly Kallay                                 : mrcc  (arbitrary order and MRCC methods)
   Andreas Klamt, Michael Diedenhofen            : otool_cosmo (COSMO solvation model)
   Jiri Pittner, Ondrej Demel                    : Mk-CCSD
   Frank Weinhold                                : gennbo (NPA and NBO analysis)
   Christopher J. Cramer and Donald G. Truhlar   : smd solvation model


 Your calculation uses the libint2 library for the computation of 2-el integrals
 For citations please refer to: http://libint.valeyev.net

 This ORCA versions uses:
   CBLAS   interface :  Fast vector & matrix operations
   LAPACKE interface :  Fast linear algebra routines
   SCALAPACK package :  Parallel linear algebra routines


leaving
Your calculation utilizes the basis: def2-SVP
   F. Weigend and R. Ahlrichs, Phys. Chem. Chem. Phys. 7, 3297 (2005).

================================================================================
                                        WARNINGS
                       Please study these warnings very carefully!
================================================================================

Warning: TCutStore was < 0. Adjusted to Thresh (uncritical)

WARNING: Direct SCF is incompatible with Method<>HF and Method<>DFT
  ===> : conventional SCF is chosen

WARNING: The NDO methods need Guess=HUECKEL or Guess=HCORE or Guess=MOREAD
  ===> : Guess is set to Hueckel

WARNING: The NDO methods need %rel::SOCType==1
  ===> : %rel::SOCType is set to 1

WARNING: The NDO methods cannot have frozencore=1
  ===> : %method FrozenCore=0 end

INFO   : the flag for use of LIBINT has been found!

================================================================================
                                       INPUT FILE
================================================================================
NAME = /home/mattyjones/Software/morphct/tests/output_EZ/donor_polymer/chromophores/input_orca/pair/00007-00028.inp
|  1> # ================================================================
|  2> # Orca input file made by Matty Jones
|  3> # ================================================================
|  4> ! ZINDO/S 
|  5> ! NOPOP
|  6> ! NOMOPRINT
|  7> * xyz 0   1
|  8>  C  -17.94098  -12.73606  -6.31398
|  9>  C  -16.74805  -12.49700  -6.99783
| 10>  C  -15.58191  -12.97402  -6.32193
| 11>  C  -15.85541  -13.59288  -5.09820
| 12>  S  -17.50250  -13.51833  -4.91939
| 13>  H  -16.53727  -11.38335  -7.35048
| 14>  C  -14.16627  -12.71026  -7.08603
| 15>  C  -14.20262  -11.13596  -7.84869
| 16>  C  -13.23833  -10.07442  -8.81083
| 17>  H  -12.79394  -9.26859  -8.11957
| 18>  H  -12.39973  -10.68018  -9.30750
| 19>  H  -15.03450  -11.34982  -8.63328
| 20>  H  -14.57114  -10.44738  -7.00173
| 21>  H  -13.28448  -12.70350  -6.33633
| 22>  H  -13.97898  -13.49902  -7.90521
| 23>  C  -14.21399  -9.37468  -9.93339
| 24>  C  -13.76845  -7.99769  -10.82281
| 25>  C  -13.06289  -8.11881  -12.34624
| 26>  H  -12.88757  -7.04958  -12.75995
| 27>  H  -13.77275  -8.69269  -13.05705
| 28>  H  -12.05190  -8.67213  -12.26246
| 29>  H  -14.74654  -7.41419  -10.97777
| 30>  H  -13.04521  -7.39531  -10.15913
| 31>  H  -14.44067  -10.18588  -10.73303
| 32>  H  -15.21396  -9.09783  -9.41419
| 33>  C  12.39782  6.61889  6.90935
| 34>  C  13.16467  7.55177  7.60905
| 35>  C  12.39543  8.53782  8.30205
| 36>  C  11.01420  8.38277  8.14880
| 37>  S  10.82013  7.05253  7.17759
| 38>  H  14.30255  7.50920  7.67817
| 39>  C  13.08765  9.70343  9.18779
| 40>  C  14.47889  10.52813  8.69328
| 41>  C  14.97101  11.74600  9.77604
| 42>  H  14.66225  11.41717  10.84102
| 43>  H  14.39651  12.71086  9.50319
| 44>  H  15.33328  9.76079  8.61066
| 45>  H  14.27866  11.01104  7.67044
| 46>  H  12.31241  10.56571  9.34080
| 47>  H  13.36861  9.26753  10.22826
| 48>  C  16.57420  12.03227  9.74443
| 49>  C  17.15550  12.71175  8.31241
| 50>  C  17.16314  14.38729  8.21715
| 51>  H  17.98012  14.81035  8.91870
| 52>  H  16.12705  14.79574  8.52999
| 53>  H  17.39024  14.70070  7.12552
| 54>  H  18.24328  12.34854  8.17612
| 55>  H  16.51203  12.30834  7.44410
| 56>  H  17.14633  11.04309  9.92468
| 57>  H  16.84033  12.76757  10.59952
| 58>  H  -18.92073  -12.47298  -6.62136
| 59>  H  -15.15636  -14.02019  -4.42564
| 60>  H  12.74981  5.80481  6.32886
| 61>  H  10.25100  8.98860  8.56602
| 62> *
| 63> 
| 64>                          ****END OF INPUT****
================================================================================

                       ****************************
                       * Single Point Calculation *
                       ****************************

---------------------------------
CARTESIAN COORDINATES (ANGSTROEM)
---------------------------------
  C    -17.940980  -12.736060   -6.313980
  C    -16.748050  -12.497000   -6.997830
  C    -15.581910  -12.974020   -6.321930
  C    -15.855410  -13.592880   -5.098200
  S    -17.502500  -13.518330   -4.919390
  H    -16.537270  -11.383350   -7.350480
  C    -14.166270  -12.710260   -7.086030
  C    -14.202620  -11.135960   -7.848690
  C    -13.238330  -10.074420   -8.810830
  H    -12.793940   -9.268590   -8.119570
  H    -12.399730  -10.680180   -9.307500
  H    -15.034500  -11.349820   -8.633280
  H    -14.571140  -10.447380   -7.001730
  H    -13.284480  -12.703500   -6.336330
  H    -13.978980  -13.499020   -7.905210
  C    -14.213990   -9.374680   -9.933390
  C    -13.768450   -7.997690  -10.822810
  C    -13.062890   -8.118810  -12.346240
  H    -12.887570   -7.049580  -12.759950
  H    -13.772750   -8.692690  -13.057050
  H    -12.051900   -8.672130  -12.262460
  H    -14.746540   -7.414190  -10.977770
  H    -13.045210   -7.395310  -10.159130
  H    -14.440670  -10.185880  -10.733030
  H    -15.213960   -9.097830   -9.414190
  C     12.397820    6.618890    6.909350
  C     13.164670    7.551770    7.609050
  C     12.395430    8.537820    8.302050
  C     11.014200    8.382770    8.148800
  S     10.820130    7.052530    7.177590
  H     14.302550    7.509200    7.678170
  C     13.087650    9.703430    9.187790
  C     14.478890   10.528130    8.693280
  C     14.971010   11.746000    9.776040
  H     14.662250   11.417170   10.841020
  H     14.396510   12.710860    9.503190
  H     15.333280    9.760790    8.610660
  H     14.278660   11.011040    7.670440
  H     12.312410   10.565710    9.340800
  H     13.368610    9.267530   10.228260
  C     16.574200   12.032270    9.744430
  C     17.155500   12.711750    8.312410
  C     17.163140   14.387290    8.217150
  H     17.980120   14.810350    8.918700
  H     16.127050   14.795740    8.529990
  H     17.390240   14.700700    7.125520
  H     18.243280   12.348540    8.176120
  H     16.512030   12.308340    7.444100
  H     17.146330   11.043090    9.924680
  H     16.840330   12.767570   10.599520
  H    -18.920730  -12.472980   -6.621360
  H    -15.156360  -14.020190   -4.425640
  H     12.749810    5.804810    6.328860
  H     10.251000    8.988600    8.566020

----------------------------
CARTESIAN COORDINATES (A.U.)
----------------------------
  NO LB      ZA    FRAG     MASS         X           Y           Z
   0 C     4.0000    0    12.011  -33.903539  -24.067665  -11.931693
   1 C     4.0000    0    12.011  -31.649228  -23.615907  -13.223982
   2 C     4.0000    0    12.011  -29.445543  -24.517345  -11.946716
   3 C     4.0000    0    12.011  -29.962383  -25.686821   -9.634202
   4 S     6.0000    0    32.060  -33.074932  -25.545941   -9.296300
   5 H     1.0000    0     1.008  -31.250911  -21.511414  -13.890394
   6 C     4.0000    0    12.011  -26.770371  -24.018910  -13.390656
   7 C     4.0000    0    12.011  -26.839062  -21.043915  -14.831875
   8 C     4.0000    0    12.011  -25.016818  -19.037895  -16.650056
   9 H     1.0000    0     1.008  -24.177043  -17.515097  -15.343764
  10 H     1.0000    0     1.008  -23.432094  -20.182615  -17.588626
  11 H     1.0000    0     1.008  -28.411088  -21.448051  -16.314535
  12 H     1.0000    0     1.008  -27.535464  -19.742687  -13.231352
  13 H     1.0000    0     1.008  -25.104029  -24.006136  -11.973928
  14 H     1.0000    0     1.008  -26.416444  -25.509451  -14.938682
  15 C     4.0000    0    12.011  -26.860548  -17.715578  -18.771387
  16 C     4.0000    0    12.011  -26.018600  -15.113444  -20.452147
  17 C     4.0000    0    12.011  -24.685285  -15.342327  -23.331012
  18 H     1.0000    0     1.008  -24.353978  -13.321776  -24.112811
  19 H     1.0000    0     1.008  -26.026726  -16.426803  -24.674249
  20 H     1.0000    0     1.008  -22.774790  -16.387951  -23.172691
  21 H     1.0000    0     1.008  -27.866922  -14.010789  -20.744979
  22 H     1.0000    0     1.008  -24.651874  -13.975111  -19.197973
  23 H     1.0000    0     1.008  -27.288911  -19.248524  -20.282487
  24 H     1.0000    0     1.008  -28.750218  -17.192407  -17.790241
  25 C     4.0000    0    12.011   23.428484   12.507889   13.056779
  26 C     4.0000    0    12.011   24.877621   14.270777   14.379021
  27 C     4.0000    0    12.011   23.423968   16.134142   15.688601
  28 C     4.0000    0    12.011   20.813822   15.841140   15.399000
  29 S     6.0000    0    32.060   20.447082   13.327350   13.563679
  30 H     1.0000    0     1.008   27.027903   14.190331   14.509639
  31 C     4.0000    0    12.011   24.732074   18.336825   17.362407
  32 C     4.0000    0    12.011   27.361137   19.895282   16.427918
  33 C     4.0000    0    12.011   28.291109   22.196723   18.474038
  34 H     1.0000    0     1.008   27.707637   21.575325   20.486559
  35 H     1.0000    0     1.008   27.205461   24.020044   17.958426
  36 H     1.0000    0     1.008   28.975700   18.445220   16.271789
  37 H     1.0000    0     1.008   26.982757   20.807850   14.495031
  38 H     1.0000    0     1.008   23.267083   19.966298   17.651554
  39 H     1.0000    0     1.008   25.263012   17.513094   19.328610
  40 C     4.0000    0    12.011   31.320699   22.737695   18.414304
  41 C     4.0000    0    12.011   32.419197   24.021726   15.708178
  42 C     4.0000    0    12.011   32.433634   27.188038   15.528163
  43 H     1.0000    0     1.008   33.977503   27.987505   16.853900
  44 H     1.0000    0     1.008   30.475708   27.959897   16.119345
  45 H     1.0000    0     1.008   32.862791   27.780297   13.465281
  46 H     1.0000    0     1.008   34.474803   23.335359   15.450628
  47 H     1.0000    0     1.008   31.203215   23.259392   14.067310
  48 H     1.0000    0     1.008   32.401868   20.868416   18.754927
  49 H     1.0000    0     1.008   31.823612   24.127211   20.030190
  50 H     1.0000    0     1.008  -35.754998  -23.570516  -12.512557
  51 H     1.0000    0     1.008  -28.641370  -26.494319   -8.363248
  52 H     1.0000    0     1.008   24.093649   10.969501   11.959812
  53 H     1.0000    0     1.008   19.371583   16.985992   16.187432

--------------------------------
INTERNAL COORDINATES (ANGSTROEM)
--------------------------------
 C      0   0   0     0.000000000000     0.00000000     0.00000000
 C      1   0   0     1.395665608590     0.00000000     0.00000000
 C      2   1   0     1.429780189400   114.10161570     0.00000000
 C      3   2   1     1.398322231283   113.69301667     0.00000000
 S      1   2   3     1.658038700212   105.47986249     0.00000000
 H      2   1   3     1.187015818513   117.26110333   232.34838184
 C      3   2   1     1.630170162038   115.63984320   180.17634662
 C      7   3   2     1.749683425109   109.38105195    38.36774265
 C      8   7   3     1.726973003640   141.65694102   180.23695889
 H      9   8   7     1.150949542161   108.14045952   258.65643283
 H      9   8   7     1.147552276151   108.94719882    18.58751508
 H      8   7   3     1.163332240635    98.24603239   294.16631171
 H      8   7   3     1.152081007742   102.94264153    49.26156500
 H      7   3   2     1.157432240652   111.03453692   156.26907070
 H      7   3   2     1.152508461618   111.31821284   279.07348201
 C      9   8   7     1.643681677455   108.10336549   139.64580434
 C     16   9   8     1.698727549697   123.16024672   164.41434991
 C     17  16   9     1.683248030713   121.70047711    94.12556445
 H     18  17  16     1.159804233222   108.65473601   178.02018117
 H     18  17  16     1.156931428435   109.54596526    58.65002781
 H     18  17  16     1.155544413210   109.60697906   297.73343123
 H     17  16   9     1.149410674955   105.00506053   213.83224661
 H     17  16   9     1.151698269687   106.67599959   330.88597892
 H     16   9   8     1.161401477526   106.78191446   285.58201824
 H     16   9   8     1.160239011325   107.91174457    41.30195999
 C     10   9   8    33.360234246995   153.58243562   115.88274961
 C     26  10   9     1.395673352508   163.55429696   166.14769747
 C     27  26  10     1.429781025227   114.10126839    13.65073241
 C     28  27  26     1.398328422761   113.69350557     0.00000000
 S     26  10   9     1.658041641003    58.59325690   181.60349448
 H     27  26  10     1.140771963935   123.60666401   190.40598125
 C     28  27  26     1.619367329577   122.10921683   179.34692930
 C     32  28  27     1.691218190447   122.86815372    41.05634287
 C     33  32  28     1.702280426046   113.62221707   177.81519059
 H     34  33  32     1.156565738253   107.76472848    30.76197848
 H     34  33  32     1.155617666921   107.66425338   273.57040877
 H     33  32  28     1.151355293600   107.84465905   297.41040860
 H     33  32  28     1.148693077632   108.78224108    56.94901376
 H     32  28  27     1.169587925767   108.59572628   160.97595751
 H     32  28  27     1.162551139735   108.84135245   279.07752626
 C     34  33  32     1.628854775939   113.44901777   151.91772381
 C     41  34  33     1.688278425142   115.21932222    67.20261535
 C     42  41  34     1.678263128595   116.84182769    89.19482650
 H     43  42  41     1.156982491873   109.50332504    70.93137448
 H     43  42  41     1.156798494207   109.45619690   310.47151062
 H     43  42  41     1.158212543103   108.93828780   190.68362456
 H     42  41  34     1.154886053514   107.32740140   210.09994898
 H     42  41  34     1.153583774635   107.79740335   327.45183475
 H     41  34  33     1.156849113670   109.47927596   305.50869838
 H     41  34  33     1.158736456232   108.86008284   187.29104904
 H      1   2   3     1.060001704385   127.25986420   179.99934954
 H      4   3   2     1.060000798207   127.20661096   179.99994107
 H     26  10   9     1.059996154050    68.79495465   357.77112001
 H     29  28  27     1.059989036406   127.20666269   179.99969249

---------------------------
INTERNAL COORDINATES (A.U.)
---------------------------
 C      0   0   0     0.000000000000     0.00000000     0.00000000
 C      1   0   0     2.637425774767     0.00000000     0.00000000
 C      2   1   0     2.701892989672   114.10161570     0.00000000
 C      3   2   1     2.642446064098   113.69301667     0.00000000
 S      1   2   3     3.133239062843   105.47986249     0.00000000
 H      2   1   3     2.243134813622   117.26110333   232.34838184
 C      3   2   1     3.080575157942   115.63984320   180.17634662
 C      7   3   2     3.306422494517   109.38105195    38.36774265
 C      8   7   3     3.263506017554   141.65694102   180.23695889
 H      9   8   7     2.174979428646   108.14045952   258.65643283
 H      9   8   7     2.168559526284   108.94719882    18.58751508
 H      8   7   3     2.198379337560    98.24603239   294.16631171
 H      8   7   3     2.177117588725   102.94264153    49.26156500
 H      7   3   2     2.187229953403   111.03453692   156.26907070
 H      7   3   2     2.177925359484   111.31821284   279.07348201
 C      9   8   7     3.106108221733   108.10336549   139.64580434
 C     16   9   8     3.210129845075   123.16024672   164.41434991
 C     17  16   9     3.180877793510   121.70047711    94.12556445
 H     18  17  16     2.191712369752   108.65473601   178.02018117
 H     18  17  16     2.186283555468   109.54596526    58.65002781
 H     18  17  16     2.183662476549   109.60697906   297.73343123
 H     17  16   9     2.172071391070   105.00506053   213.83224661
 H     17  16   9     2.176394318619   106.67599959   330.88597892
 H     16   9   8     2.194730724056   106.78191446   285.58201824
 H     16   9   8     2.192533981295   107.91174457    41.30195999
 C     10   9   8    63.041706490282   153.58243562   115.88274961
 C     26  10   9     2.637440408651   163.55429696   166.14769747
 C     27  26  10     2.701894569157   114.10126839    13.65073241
 C     28  27  26     2.642457764295   113.69350557     0.00000000
 S     26  10   9     3.133244620133    58.59325690   181.60349448
 H     27  26  10     2.155746593093   123.60666401   190.40598125
 C     28  27  26     3.060160763119   122.10921683   179.34692930
 C     32  28  27     3.195939212651   122.86815372    41.05634287
 C     33  32  28     3.216843808362   113.62221707   177.81519059
 H     34  33  32     2.185592501174   107.76472848    30.76197848
 H     34  33  32     2.183800906002   107.66425338   273.57040877
 H     33  32  28     2.175746187744   107.84465905   297.41040860
 H     33  32  28     2.170715328656   108.78224108    56.94901376
 H     32  28  27     2.210200869241   108.59572628   160.97595751
 H     32  28  27     2.196903270778   108.84135245   279.07752626
 C     34  33  32     3.078089438455   113.44901777   151.91772381
 C     41  34  33     3.190383861326   115.21932222    67.20261535
 C     42  41  34     3.171457693702   116.84182769    89.19482650
 H     43  42  41     2.186380051381   109.50332504    70.93137448
 H     43  42  41     2.186032346184   109.45619690   310.47151062
 H     43  42  41     2.188704511336   108.93828780   190.68362456
 H     42  41  34     2.182418357026   107.32740140   210.09994898
 H     42  41  34     2.179957406594   107.79740335   327.45183475
 H     41  34  33     2.186128003107   109.47927596   305.50869838
 H     41  34  33     2.189694563668   108.86008284   187.29104904
 H      1   2   3     2.003112922778   127.25986420   179.99934954
 H      4   3   2     2.003111210350   127.20661096   179.99994107
 H     26  10   9     2.003102434164    68.79495465   357.77112001
 H     29  28  27     2.003088983766   127.20666269   179.99969249

----------------------------
SLATER BASIS SET DIM= 120
----------------------------
  0 C     2 shells
 l=0 nsto= 1
    2       1.625000000000        1.000000000000
 l=1 nsto= 1
    2       1.625000000000        1.000000000000
  1 C     2 shells
 l=0 nsto= 1
    2       1.625000000000        1.000000000000
 l=1 nsto= 1
    2       1.625000000000        1.000000000000
  2 C     2 shells
 l=0 nsto= 1
    2       1.625000000000        1.000000000000
 l=1 nsto= 1
    2       1.625000000000        1.000000000000
  3 C     2 shells
 l=0 nsto= 1
    2       1.625000000000        1.000000000000
 l=1 nsto= 1
    2       1.625000000000        1.000000000000
  4 S     2 shells
 l=0 nsto= 1
    3       1.925000000000        1.000000000000
 l=1 nsto= 1
    3       1.925000000000        1.000000000000
  5 H     1 shells
 l=0 nsto= 1
    1       1.200000000000        1.000000000000
  6 C     2 shells
 l=0 nsto= 1
    2       1.625000000000        1.000000000000
 l=1 nsto= 1
    2       1.625000000000        1.000000000000
  7 C     2 shells
 l=0 nsto= 1
    2       1.625000000000        1.000000000000
 l=1 nsto= 1
    2       1.625000000000        1.000000000000
  8 C     2 shells
 l=0 nsto= 1
    2       1.625000000000        1.000000000000
 l=1 nsto= 1
    2       1.625000000000        1.000000000000
  9 H     1 shells
 l=0 nsto= 1
    1       1.200000000000        1.000000000000
 10 H     1 shells
 l=0 nsto= 1
    1       1.200000000000        1.000000000000
 11 H     1 shells
 l=0 nsto= 1
    1       1.200000000000        1.000000000000
 12 H     1 shells
 l=0 nsto= 1
    1       1.200000000000        1.000000000000
 13 H     1 shells
 l=0 nsto= 1
    1       1.200000000000        1.000000000000
 14 H     1 shells
 l=0 nsto= 1
    1       1.200000000000        1.000000000000
 15 C     2 shells
 l=0 nsto= 1
    2       1.625000000000        1.000000000000
 l=1 nsto= 1
    2       1.625000000000        1.000000000000
 16 C     2 shells
 l=0 nsto= 1
    2       1.625000000000        1.000000000000
 l=1 nsto= 1
    2       1.625000000000        1.000000000000
 17 C     2 shells
 l=0 nsto= 1
    2       1.625000000000        1.000000000000
 l=1 nsto= 1
    2       1.625000000000        1.000000000000
 18 H     1 shells
 l=0 nsto= 1
    1       1.200000000000        1.000000000000
 19 H     1 shells
 l=0 nsto= 1
    1       1.200000000000        1.000000000000
 20 H     1 shells
 l=0 nsto= 1
    1       1.200000000000        1.000000000000
 21 H     1 shells
 l=0 nsto= 1
    1       1.200000000000        1.000000000000
 22 H     1 shells
 l=0 nsto= 1
    1       1.200000000000        1.000000000000
 23 H     1 shells
 l=0 nsto= 1
    1       1.200000000000        1.000000000000
 24 H     1 shells
 l=0 nsto= 1
    1       1.200000000000        1.000000000000
 25 C     2 shells
 l=0 nsto= 1
    2       1.625000000000        1.000000000000
 l=1 nsto= 1
    2       1.625000000000        1.000000000000
 26 C     2 shells
 l=0 nsto= 1
    2       1.625000000000        1.000000000000
 l=1 nsto= 1
    2       1.625000000000        1.000000000000
 27 C     2 shells
 l=0 nsto= 1
    2       1.625000000000        1.000000000000
 l=1 nsto= 1
    2       1.625000000000        1.000000000000
 28 C     2 shells
 l=0 nsto= 1
    2       1.625000000000        1.000000000000
 l=1 nsto= 1
    2       1.625000000000        1.000000000000
 29 S     2 shells
 l=0 nsto= 1
    3       1.925000000000        1.000000000000
 l=1 nsto= 1
    3       1.925000000000        1.000000000000
 30 H     1 shells
 l=0 nsto= 1
    1       1.200000000000        1.000000000000
 31 C     2 shells
 l=0 nsto= 1
    2       1.625000000000        1.000000000000
 l=1 nsto= 1
    2       1.625000000000        1.000000000000
 32 C     2 shells
 l=0 nsto= 1
    2       1.625000000000        1.000000000000
 l=1 nsto= 1
    2       1.625000000000        1.000000000000
 33 C     2 shells
 l=0 nsto= 1
    2       1.625000000000        1.000000000000
 l=1 nsto= 1
    2       1.625000000000        1.000000000000
 34 H     1 shells
 l=0 nsto= 1
    1       1.200000000000        1.000000000000
 35 H     1 shells
 l=0 nsto= 1
    1       1.200000000000        1.000000000000
 36 H     1 shells
 l=0 nsto= 1
    1       1.200000000000        1.000000000000
 37 H     1 shells
 l=0 nsto= 1
    1       1.200000000000        1.000000000000
 38 H     1 shells
 l=0 nsto= 1
    1       1.200000000000        1.000000000000
 39 H     1 shells
 l=0 nsto= 1
    1       1.200000000000        1.000000000000
 40 C     2 shells
 l=0 nsto= 1
    2       1.625000000000        1.000000000000
 l=1 nsto= 1
    2       1.625000000000        1.000000000000
 41 C     2 shells
 l=0 nsto= 1
    2       1.625000000000        1.000000000000
 l=1 nsto= 1
    2       1.625000000000        1.000000000000
 42 C     2 shells
 l=0 nsto= 1
    2       1.625000000000        1.000000000000
 l=1 nsto= 1
    2       1.625000000000        1.000000000000
 43 H     1 shells
 l=0 nsto= 1
    1       1.200000000000        1.000000000000
 44 H     1 shells
 l=0 nsto= 1
    1       1.200000000000        1.000000000000
 45 H     1 shells
 l=0 nsto= 1
    1       1.200000000000        1.000000000000
 46 H     1 shells
 l=0 nsto= 1
    1       1.200000000000        1.000000000000
 47 H     1 shells
 l=0 nsto= 1
    1       1.200000000000        1.000000000000
 48 H     1 shells
 l=0 nsto= 1
    1       1.200000000000        1.000000000000
 49 H     1 shells
 l=0 nsto= 1
    1       1.200000000000        1.000000000000
 50 H     1 shells
 l=0 nsto= 1
    1       1.200000000000        1.000000000000
 51 H     1 shells
 l=0 nsto= 1
    1       1.200000000000        1.000000000000
 52 H     1 shells
 l=0 nsto= 1
    1       1.200000000000        1.000000000000
 53 H     1 shells
 l=0 nsto= 1
    1       1.200000000000        1.000000000000
------------------------------------------------------------------------------
                           ORCA NDO INTEGRAL CALCULATION
------------------------------------------------------------------------------

--------------
NDO PARAMETERS
--------------

Gamma integral treatment              ... Mataga-Nishimoto
Nuclear repulsuion treatment          ... Direct (ZA*ZB/RAB)
Interaction factors:
s-s (sigma) =    1.0000
s-p (sigma) =    1.0000
s-d (sigma) =    1.0000
p-p (sigma) =    1.2670  p-p(pi) =    0.5850
p-d (sigma) =    1.0000  p-d(pi) =    1.0000
d-d (sigma) =    1.0000  d-d(pi) =    1.0000 d-d (delta) =    1.0000

fGamma parameter for Mataga-Nishimoto gamma integrals:    1.2000

--------------------------
Parameters for Element H :
--------------------------
 One-electron parameters (in eV)
  U(s)  =   -13.060000 Beta(s) =    12.000000 Neff(s) =     1.000000
 One-center electron repulsion parameters (in eV)
  G(s,s)=    12.850000
--------------------------
Parameters for Element C :
--------------------------
 One-electron parameters (in eV)
  U(s)  =   -50.870766 Beta(s) =    17.000000 Neff(s) =     2.000000
  U(p)  =   -41.599980 Beta(p) =    17.000000 Neff(p) =     2.000000 
 One-center electron repulsion parameters (in eV)
  G(s,s)=    11.110000
  G(s,p)=    11.110000 G(p,p)  =    11.110000
 Slater-Condon parameters (in eV)
 F2(p,p)=     4.5098 G1(s,p)=    6.8977
--------------------------
Parameters for Element S :
--------------------------
 One-electron parameters (in eV)
  U(s)  =   -69.509597 Beta(s) =    15.000000 Neff(s) =     2.000000
  U(p)  =   -60.725746 Beta(p) =    15.000000 Neff(p) =     4.000000 
 One-center electron repulsion parameters (in eV)
  G(s,s)=    10.090000
  G(s,p)=    10.090000 G(p,p)  =    10.090000
 Slater-Condon parameters (in eV)
 F2(p,p)=     4.5377 G1(s,p)=    3.0756

 Number of atoms                    ....   54
 Number of basis functions          ....  120

 Overlap integrals                  .... done
 One electron matrix                .... done
 Nuclear repulsion                  .... done
 Integral list                      .... done
 Electron-electron repulsion        .... done
-------------------------------------------------------------------------------
                                 ORCA SCF
-------------------------------------------------------------------------------

------------
SCF SETTINGS
------------
Hamiltonian:
 ZDO-Hamiltonian        Method          .... INDO


General Settings:
 Integral files         IntName         .... /home/mattyjones/Software/morphct/tests/output_EZ/donor_polymer/chromophores/input_orca/pair/00007-00028
 Hartree-Fock type      HFTyp           .... RHF
 Total Charge           Charge          ....    0
 Multiplicity           Mult            ....    1
 Number of Electrons    NEL             ....  124
 Basis Dimension        Dim             ....  120
 Nuclear Repulsion      ENuc            ....    633.0665071586 Eh

Convergence Acceleration:
 DIIS                   CNVDIIS         .... on
   Start iteration      DIISMaxIt       ....    12
   Startup error        DIISStart       ....  0.200000
   # of expansion vecs  DIISMaxEq       ....     5
   Bias factor          DIISBfac        ....   1.050
   Max. coefficient     DIISMaxC        ....  10.000
 Newton-Raphson         CNVNR           .... off
 SOSCF                  CNVSOSCF        .... on
   Start iteration      SOSCFMaxIt      ....   150
   Startup grad/error   SOSCFStart      ....  0.003300
 Level Shifting         CNVShift        .... on
   Level shift para.    LevelShift      ....    0.2500
   Turn off err/grad.   ShiftErr        ....    0.0010
 Zerner damping         CNVZerner       .... off
 Static damping         CNVDamp         .... on
   Fraction old density DampFac         ....    0.7000
   Max. Damping (<1)    DampMax         ....    0.9800
   Min. Damping (>=0)   DampMin         ....    0.0000
   Turn off err/grad.   DampErr         ....    0.1000
 Fernandez-Rico         CNVRico         .... off

SCF Procedure:
 Maximum # iterations   MaxIter         ....   125
 SCF integral mode      SCFMode         .... Conventional
 Integral Buffer length BufferLength    .... 1048576
 Integral index format  IndFormat       ....     0
 Integral value format  ValFormat       ....     0
 Integral Storage       Thresh          ....  1.000e-08 Eh

Convergence Tolerance:
 Convergence Check Mode ConvCheckMode   .... Total+1el-Energy
 Convergence forced     ConvForced      .... 0
 Energy Change          TolE            ....  1.000e-06 Eh
 1-El. energy change                    ....  1.000e-03 Eh
 Orbital Gradient       TolG            ....  5.000e-05
 Orbital Rotation angle TolX            ....  5.000e-05
 DIIS Error             TolErr          ....  1.000e-06


Diagonalization of the overlap matrix:
Smallest eigenvalue                        ... 1.678e-01
Time for diagonalization                   ...    0.003 sec
Threshold for overlap eigenvalues          ... 1.000e-08
Number of eigenvalues below threshold      ... 0
Time for construction of square roots      ...    0.000 sec
Total time needed                          ...    0.004 sec

-------------------------------
INITIAL GUESS: EXTENDED HUECKEL
-------------------------------
EHT matrix was read from disk
EHT matrix was diagonalized
Initial density was built
                      ------------------
                      INITIAL GUESS DONE
                      ------------------

 InCore treatment chosen:
   Memory dedicated               ...    1024 MB
   Memory needed                  ...      0 MB
   Number of tiny    integrals    ...       0
   Number of small   integrals    ...       0
   Number of regular integrals    ...    7392

--------------
SCF ITERATIONS
--------------
ITER       Energy         Delta-E        Max-DP      RMS-DP      [F,P]     Damp
  0    -23.0302684575   0.000000000000 0.04782005  0.00150857  0.1222501 0.7000
  1    -23.0750513900  -0.044782932417 0.04636422  0.00142537  0.0837070 0.7000
                               ***Turning on DIIS***
  2    -23.1080824041  -0.033031014123 0.12137718  0.00366027  0.0508590 0.0000
  3    -23.1923191323  -0.084236728168 0.02213503  0.00075997  0.0225004 0.0000
  4    -23.1773701475   0.014948984804 0.01605008  0.00053434  0.0096612 0.0000
  5    -23.1960143447  -0.018644197270 0.01132990  0.00036308  0.0057559 0.0000
  6    -23.1982563871  -0.002242042334 0.00808286  0.00026120  0.0031839 0.0000
  7    -23.1949085435   0.003347843533 0.00455455  0.00015232  0.0017435 0.0000
                      *** Initiating the SOSCF procedure ***
                           *** Shutting down DIIS ***
                      *** Re-Reading the Fockian *** 
                      *** Removing any level shift *** 
ITER      Energy       Delta-E        Grad      Rot      Max-DP    RMS-DP
  8    -23.19387656   0.0010319883  0.001899  0.001899  0.002530  0.000080
  9    -23.19251523   0.0013613298  0.000537  0.001565  0.001333  0.000037
 10    -23.19252018  -0.0000049501  0.000251  0.001703  0.001608  0.000043
 11    -23.19252211  -0.0000019366  0.000036  0.000085  0.000151  0.000005
                 **** Energy Check signals convergence ****
              ***Rediagonalizing the Fockian in SOSCF/NRSCF***

               *****************************************************
               *                     SUCCESS                       *
               *           SCF CONVERGED AFTER  12 CYCLES          *
               *****************************************************


----------------
TOTAL SCF ENERGY
----------------

Total Energy       :          -23.19252217 Eh            -631.10061 eV

Components:
Nuclear Repulsion  :          633.06650716 Eh           17226.61544 eV
Electronic Energy  :         -656.25902932 Eh          -17857.71606 eV
One Electron Energy:        -1222.25718234 Eh          -33259.30880 eV
Two Electron Energy:          565.99815302 Eh           15401.59275 eV


---------------
SCF CONVERGENCE
---------------

  Last Energy change         ...   -5.3570e-08  Tolerance :   1.0000e-06
  Last MAX-Density change    ...    5.9765e-05  Tolerance :   1.0000e-05
  Last RMS-Density change    ...    1.5849e-06  Tolerance :   1.0000e-06
  Last Orbital Gradient      ...    1.6643e-05  Tolerance :   5.0000e-05
  Last Orbital Rotation      ...    3.8892e-05  Tolerance :   5.0000e-05

             **** THE GBW FILE WAS UPDATED (/home/mattyjones/Software/morphct/tests/output_EZ/donor_polymer/chromophores/input_orca/pair/00007-00028.gbw) ****
             **** DENSITY FILE WAS UPDATED (/home/mattyjones/Software/morphct/tests/output_EZ/donor_polymer/chromophores/input_orca/pair/00007-00028.scfp.tmp) ****
             **** ENERGY FILE WAS UPDATED (/home/mattyjones/Software/morphct/tests/output_EZ/donor_polymer/chromophores/input_orca/pair/00007-00028.en.tmp) ****
----------------
ORBITAL ENERGIES
----------------

  NO   OCC          E(Eh)            E(eV) 
   0   2.0000      -1.567286       -42.6480 
   1   2.0000      -1.555863       -42.3372 
   2   2.0000      -1.407119       -38.2897 
   3   2.0000      -1.388905       -37.7940 
   4   2.0000      -1.289095       -35.0780 
   5   2.0000      -1.287919       -35.0461 
   6   2.0000      -1.194904       -32.5150 
   7   2.0000      -1.179385       -32.0927 
   8   2.0000      -1.118071       -30.4243 
   9   2.0000      -1.114498       -30.3270 
  10   2.0000      -1.033194       -28.1146 
  11   2.0000      -1.021694       -27.8017 
  12   2.0000      -0.955564       -26.0022 
  13   2.0000      -0.954427       -25.9713 
  14   2.0000      -0.923579       -25.1319 
  15   2.0000      -0.894972       -24.3534 
  16   2.0000      -0.861634       -23.4462 
  17   2.0000      -0.841366       -22.8947 
  18   2.0000      -0.831725       -22.6324 
  19   2.0000      -0.828217       -22.5369 
  20   2.0000      -0.775778       -21.1100 
  21   2.0000      -0.756608       -20.5884 
  22   2.0000      -0.724572       -19.7166 
  23   2.0000      -0.724568       -19.7165 
  24   2.0000      -0.710631       -19.3373 
  25   2.0000      -0.693323       -18.8663 
  26   2.0000      -0.673910       -18.3380 
  27   2.0000      -0.671275       -18.2663 
  28   2.0000      -0.665013       -18.0959 
  29   2.0000      -0.638216       -17.3667 
  30   2.0000      -0.623735       -16.9727 
  31   2.0000      -0.614797       -16.7295 
  32   2.0000      -0.587495       -15.9866 
  33   2.0000      -0.584470       -15.9043 
  34   2.0000      -0.578690       -15.7470 
  35   2.0000      -0.578307       -15.7365 
  36   2.0000      -0.567545       -15.4437 
  37   2.0000      -0.565454       -15.3868 
  38   2.0000      -0.558527       -15.1983 
  39   2.0000      -0.548874       -14.9356 
  40   2.0000      -0.536497       -14.5988 
  41   2.0000      -0.534528       -14.5453 
  42   2.0000      -0.523583       -14.2474 
  43   2.0000      -0.516801       -14.0629 
  44   2.0000      -0.509852       -13.8738 
  45   2.0000      -0.502070       -13.6620 
  46   2.0000      -0.491331       -13.3698 
  47   2.0000      -0.489045       -13.3076 
  48   2.0000      -0.486024       -13.2254 
  49   2.0000      -0.481038       -13.0897 
  50   2.0000      -0.480994       -13.0885 
  51   2.0000      -0.470712       -12.8087 
  52   2.0000      -0.468974       -12.7614 
  53   2.0000      -0.466778       -12.7017 
  54   2.0000      -0.465927       -12.6785 
  55   2.0000      -0.454521       -12.3681 
  56   2.0000      -0.439192       -11.9510 
  57   2.0000      -0.412187       -11.2162 
  58   2.0000      -0.357199        -9.7199 
  59   2.0000      -0.342631        -9.3235 
  60   2.0000      -0.304856        -8.2956 
  61   2.0000      -0.304537        -8.2869 
  62   0.0000       0.000255         0.0069 
  63   0.0000       0.007773         0.2115 
  64   0.0000       0.050072         1.3625 
  65   0.0000       0.062008         1.6873 
  66   0.0000       0.070639         1.9222 
  67   0.0000       0.075551         2.0558 
  68   0.0000       0.088310         2.4030 
  69   0.0000       0.089006         2.4220 
  70   0.0000       0.102914         2.8004 
  71   0.0000       0.106087         2.8868 
  72   0.0000       0.107064         2.9133 
  73   0.0000       0.107893         2.9359 
  74   0.0000       0.125514         3.4154 
  75   0.0000       0.126225         3.4347 
  76   0.0000       0.141236         3.8432 
  77   0.0000       0.143822         3.9136 
  78   0.0000       0.157758         4.2928 
  79   0.0000       0.157881         4.2962 
  80   0.0000       0.164760         4.4833 
  81   0.0000       0.169318         4.6074 
  82   0.0000       0.171444         4.6652 
  83   0.0000       0.187396         5.0993 
  84   0.0000       0.203264         5.5311 
  85   0.0000       0.204798         5.5728 
  86   0.0000       0.220793         6.0081 
  87   0.0000       0.235262         6.4018 
  88   0.0000       0.235671         6.4129 
  89   0.0000       0.236333         6.4310 
  90   0.0000       0.237225         6.4552 
  91   0.0000       0.239191         6.5087 
  92   0.0000       0.239473         6.5164 
  93   0.0000       0.240203         6.5362 
  94   0.0000       0.240204         6.5363 
  95   0.0000       0.240660         6.5487 
  96   0.0000       0.242105         6.5880 
  97   0.0000       0.244151         6.6437 
  98   0.0000       0.244297         6.6477 
  99   0.0000       0.245240         6.6733 
 100   0.0000       0.246492         6.7074 
 101   0.0000       0.252663         6.8753 
 102   0.0000       0.255990         6.9658 
 103   0.0000       0.262186         7.1344 
 104   0.0000       0.264647         7.2014 
 105   0.0000       0.267108         7.2684 
 106   0.0000       0.279924         7.6171 
 107   0.0000       0.283927         7.7261 
 108   0.0000       0.302606         8.2343 
 109   0.0000       0.308139         8.3849 
 110   0.0000       0.310152         8.4397 
 111   0.0000       0.313532         8.5316 
 112   0.0000       0.327428         8.9098 
 113   0.0000       0.338442         9.2095 
 114   0.0000       0.353405         9.6166 
 115   0.0000       0.355052         9.6615 
 116   0.0000       0.413601        11.2547 
 117   0.0000       0.418277        11.3819 
 118   0.0000       0.425769        11.5858 
 119   0.0000       0.430226        11.7070 
-------
TIMINGS
-------

Total SCF time: 0 days 0 hours 0 min 0 sec 

Total time                  ....       0.207 sec
Sum of individual times     ....       0.140 sec  ( 67.4%)

Fock matrix formation       ....       0.046 sec  ( 22.0%)
Diagonalization             ....       0.029 sec  ( 14.0%)
Density matrix formation    ....       0.003 sec  (  1.6%)
Population analysis         ....       0.000 sec  (  0.0%)
Initial guess               ....       0.003 sec  (  1.6%)
Orbital Transformation      ....       0.000 sec  (  0.0%)
Orbital Orthonormalization  ....       0.000 sec  (  0.0%)
DIIS solution               ....       0.006 sec  (  2.9%)
SOSCF solution              ....       0.052 sec  ( 25.2%)

-------------------------   --------------------
FINAL SINGLE POINT ENERGY       -23.192522165627
-------------------------   --------------------


                            ***************************************
                            *     ORCA property calculations      *
                            ***************************************

                                    ---------------------
                                    Active property flags
                                    ---------------------
   (+) Dipole Moment


------------------------------------------------------------------------------
                       ORCA ELECTRIC PROPERTIES CALCULATION
------------------------------------------------------------------------------

Dipole Moment Calculation                       ... on
Quadrupole Moment Calculation                   ... off
Polarizability Calculation                      ... off
GBWName                                         ... /home/mattyjones/Software/morphct/tests/output_EZ/donor_polymer/chromophores/input_orca/pair/00007-00028.gbw
Electron density file                           ... /home/mattyjones/Software/morphct/tests/output_EZ/donor_polymer/chromophores/input_orca/pair/00007-00028.scfp.tmp
The origin for moment calculation is the CENTER OF MASS  = (-1.558848, -1.683883  0.598792)

-------------
DIPOLE MOMENT
-------------
                                X             Y             Z
Electronic contribution:   -185.16635    -185.91917      57.84809
Nuclear contribution   :     94.00900      96.61969     -34.08928
                        -----------------------------------------
Total Dipole Moment    :    -91.15735     -89.29948      23.75881
                        -----------------------------------------
Magnitude (a.u.)       :    129.80192
Magnitude (Debye)      :    329.93027


Timings for individual modules:

Sum of individual times         ...        0.246 sec (=   0.004 min)
STO integral calculation        ...        0.028 sec (=   0.000 min)  11.2 %
SCF iterations                  ...        0.218 sec (=   0.004 min)  88.8 %
                             ****ORCA TERMINATED NORMALLY****
TOTAL RUN TIME: 0 days 0 hours 0 minutes 0 seconds 591 msec

