
                                 *****************
                                 * O   R   C   A *
                                 *****************

           --- An Ab Initio, DFT and Semiempirical electronic structure package ---

                  #######################################################
                  #                        -***-                        #
                  #  Department of molecular theory and spectroscopy    #
                  #              Directorship: Frank Neese              #
                  # Max Planck Institute for Chemical Energy Conversion #
                  #                  D-45470 Muelheim/Ruhr              #
                  #                       Germany                       #
                  #                                                     #
                  #                  All rights reserved                #
                  #                        -***-                        #
                  #######################################################


                         Program Version 4.0.1.2 - RELEASE -


 With contributions from (in alphabetic order):
   Daniel Aravena         : Magnetic Properties
   Michael Atanasov       : Ab Initio Ligand Field Theory
   Ute Becker             : Parallelization
   Martin Brehm           : Molecular dynamics
   Dmytro Bykov           : SCF Hessian
   Vijay G. Chilkuri      : MRCI spin determinant printing
   Dipayan Datta          : RHF DLPNO-CCSD density
   Achintya Kumar Dutta   : EOM-CC, STEOM-CC
   Dmitry Ganyushin       : Spin-Orbit,Spin-Spin,Magnetic field MRCI
   Yang Guo               : DLPNO-NEVPT2, CIM, IAO-localization
   Andreas Hansen         : Spin unrestricted coupled pair/coupled cluster methods
   Lee Huntington         : MR-EOM, pCC
   Robert Izsak           : Overlap fitted RIJCOSX, COSX-SCS-MP3, EOM
   Christian Kollmar      : KDIIS, OOCD, Brueckner-CCSD(T), CCSD density
   Simone Kossmann        : Meta GGA functionals, TD-DFT gradient, OOMP2, MP2 Hessian
   Martin Krupicka        : AUTO-CI
   Dagmar Lenk            : GEPOL surface
   Dimitrios Liakos       : Extrapolation schemes; parallel MDCI
   Dimitrios Manganas     : ROCIS; embedding schemes
   Dimitrios Pantazis     : SARC Basis sets
   Taras Petrenko         : DFT Hessian,TD-DFT gradient, ASA, ECA, R-Raman, ABS, FL, XAS/XES, NRVS
   Peter Pinski           : DLPNO-MP2
   Christoph Reimann      : Effective Core Potentials
   Marius Retegan         : Local ZFS, SOC
   Christoph Riplinger    : Optimizer, TS searches, QM/MM, DLPNO-CCSD(T), (RO)-DLPNO pert. Triples
   Tobias Risthaus        : Range-separated hybrids, TD-DFT gradient, RPA, STAB
   Michael Roemelt        : Restricted open shell CIS
   Masaaki Saitow         : Open-shell DLPNO
   Barbara Sandhoefer     : DKH picture change effects
   Kantharuban Sivalingam : CASSCF convergence, NEVPT2, FIC-MRCI
   Georgi Stoychev        : AutoAux
   Boris Wezisla          : Elementary symmetry handling
   Frank Wennmohs         : Technical directorship


 We gratefully acknowledge several colleagues who have allowed us to
 interface, adapt or use parts of their codes:
   Stefan Grimme, W. Hujo, H. Kruse,             : VdW corrections, initial TS optimization,
                  C. Bannwarth                     DFT functionals, gCP, sTDA/sTD-DF
   Ed Valeev                                     : LibInt (2-el integral package), F12 methods
   Garnet Chan, S. Sharma, J. Yang, R. Olivares  : DMRG
   Ulf Ekstrom                                   : XCFun DFT Library
   Mihaly Kallay                                 : mrcc  (arbitrary order and MRCC methods)
   Andreas Klamt, Michael Diedenhofen            : otool_cosmo (COSMO solvation model)
   Jiri Pittner, Ondrej Demel                    : Mk-CCSD
   Frank Weinhold                                : gennbo (NPA and NBO analysis)
   Christopher J. Cramer and Donald G. Truhlar   : smd solvation model


 Your calculation uses the libint2 library for the computation of 2-el integrals
 For citations please refer to: http://libint.valeyev.net

 This ORCA versions uses:
   CBLAS   interface :  Fast vector & matrix operations
   LAPACKE interface :  Fast linear algebra routines
   SCALAPACK package :  Parallel linear algebra routines


leaving
Your calculation utilizes the basis: def2-SVP
   F. Weigend and R. Ahlrichs, Phys. Chem. Chem. Phys. 7, 3297 (2005).

================================================================================
                                        WARNINGS
                       Please study these warnings very carefully!
================================================================================

Warning: TCutStore was < 0. Adjusted to Thresh (uncritical)

WARNING: Direct SCF is incompatible with Method<>HF and Method<>DFT
  ===> : conventional SCF is chosen

WARNING: The NDO methods need Guess=HUECKEL or Guess=HCORE or Guess=MOREAD
  ===> : Guess is set to Hueckel

WARNING: The NDO methods need %rel::SOCType==1
  ===> : %rel::SOCType is set to 1

WARNING: The NDO methods cannot have frozencore=1
  ===> : %method FrozenCore=0 end

INFO   : the flag for use of LIBINT has been found!

================================================================================
                                       INPUT FILE
================================================================================
NAME = /home/mattyjones/Software/morphct/tests/output_EZ/donor_polymer/chromophores/input_orca/pair/00002-00024.inp
|  1> # ================================================================
|  2> # Orca input file made by Matty Jones
|  3> # ================================================================
|  4> ! ZINDO/S 
|  5> ! NOPOP
|  6> ! NOMOPRINT
|  7> * xyz 0   1
|  8>  C  19.27754  3.85097  -7.86356
|  9>  C  18.62527  2.62580  -8.00984
| 10>  C  19.21875  1.55633  -7.26939
| 11>  C  20.34534  1.93894  -6.53472
| 12>  S  20.54504  3.55757  -6.83572
| 13>  H  17.52416  2.61091  -8.30219
| 14>  C  18.51191  0.11560  -7.39388
| 15>  C  16.82636  0.15265  -7.23011
| 16>  C  16.16038  0.40387  -8.75642
| 17>  H  15.06360  0.74133  -8.61898
| 18>  H  16.71875  1.19194  -9.38020
| 19>  H  16.45159  -0.83990  -6.79044
| 20>  H  16.53363  1.02390  -6.53757
| 21>  H  18.81075  -0.73499  -6.67246
| 22>  H  18.75391  -0.29488  -8.46451
| 23>  C  16.23788  -0.99563  -9.58124
| 24>  C  15.56615  -0.87124  -11.11423
| 25>  C  13.94475  -1.30249  -11.07292
| 26>  H  13.33575  -0.56892  -11.72828
| 27>  H  13.55310  -1.26041  -9.98415
| 28>  H  13.83152  -2.37977  -11.48114
| 29>  H  15.65947  0.21593  -11.48441
| 30>  H  16.13178  -1.57399  -11.83055
| 31>  H  17.33916  -1.32035  -9.72022
| 32>  H  15.68620  -1.82592  -8.99440
| 33>  C  -19.20861  -4.14927  10.21967
| 34>  C  -19.11669  -2.92704  9.55215
| 35>  C  -19.54293  -1.80442  10.32823
| 36>  C  -19.97360  -2.14190  11.61507
| 37>  S  -19.80669  -3.78836  11.72338
| 38>  H  -19.17855  -2.89975  8.39629
| 39>  C  -19.42248  -0.37501  9.57497
| 40>  C  -17.94815  -0.41799  8.64582
| 41>  C  -17.07248  0.62612  7.61365
| 42>  H  -17.70385  1.58064  7.46941
| 43>  H  -16.97455  0.08720  6.59348
| 44>  H  -17.17190  -0.76452  9.42886
| 45>  H  -18.15058  -1.27699  7.89689
| 46>  H  -20.30772  -0.20902  8.85048
| 47>  H  -19.35103  0.49830  10.32686
| 48>  C  -15.58493  1.01575  8.15332
| 49>  C  -14.43258  1.14671  6.91505
| 50>  C  -12.86525  1.41531  7.46617
| 51>  H  -12.90015  1.97399  8.47851
| 52>  H  -12.28827  2.05110  6.69039
| 53>  H  -12.33239  0.39645  7.60428
| 54>  H  -14.43855  0.16548  6.31145
| 55>  H  -14.73502  2.02354  6.23286
| 56>  H  -15.19916  0.21361  8.88806
| 57>  H  -15.62774  2.03487  8.69700
| 58>  H  19.01745  4.77435  -8.31448
| 59>  H  20.94595  1.32332  -5.91515
| 60>  H  -18.95049  -5.10645  9.84444
| 61>  H  -20.33176  -1.48328  12.36443
| 62> *
| 63> 
| 64>                          ****END OF INPUT****
================================================================================

                       ****************************
                       * Single Point Calculation *
                       ****************************

---------------------------------
CARTESIAN COORDINATES (ANGSTROEM)
---------------------------------
  C     19.277540    3.850970   -7.863560
  C     18.625270    2.625800   -8.009840
  C     19.218750    1.556330   -7.269390
  C     20.345340    1.938940   -6.534720
  S     20.545040    3.557570   -6.835720
  H     17.524160    2.610910   -8.302190
  C     18.511910    0.115600   -7.393880
  C     16.826360    0.152650   -7.230110
  C     16.160380    0.403870   -8.756420
  H     15.063600    0.741330   -8.618980
  H     16.718750    1.191940   -9.380200
  H     16.451590   -0.839900   -6.790440
  H     16.533630    1.023900   -6.537570
  H     18.810750   -0.734990   -6.672460
  H     18.753910   -0.294880   -8.464510
  C     16.237880   -0.995630   -9.581240
  C     15.566150   -0.871240  -11.114230
  C     13.944750   -1.302490  -11.072920
  H     13.335750   -0.568920  -11.728280
  H     13.553100   -1.260410   -9.984150
  H     13.831520   -2.379770  -11.481140
  H     15.659470    0.215930  -11.484410
  H     16.131780   -1.573990  -11.830550
  H     17.339160   -1.320350   -9.720220
  H     15.686200   -1.825920   -8.994400
  C    -19.208610   -4.149270   10.219670
  C    -19.116690   -2.927040    9.552150
  C    -19.542930   -1.804420   10.328230
  C    -19.973600   -2.141900   11.615070
  S    -19.806690   -3.788360   11.723380
  H    -19.178550   -2.899750    8.396290
  C    -19.422480   -0.375010    9.574970
  C    -17.948150   -0.417990    8.645820
  C    -17.072480    0.626120    7.613650
  H    -17.703850    1.580640    7.469410
  H    -16.974550    0.087200    6.593480
  H    -17.171900   -0.764520    9.428860
  H    -18.150580   -1.276990    7.896890
  H    -20.307720   -0.209020    8.850480
  H    -19.351030    0.498300   10.326860
  C    -15.584930    1.015750    8.153320
  C    -14.432580    1.146710    6.915050
  C    -12.865250    1.415310    7.466170
  H    -12.900150    1.973990    8.478510
  H    -12.288270    2.051100    6.690390
  H    -12.332390    0.396450    7.604280
  H    -14.438550    0.165480    6.311450
  H    -14.735020    2.023540    6.232860
  H    -15.199160    0.213610    8.888060
  H    -15.627740    2.034870    8.697000
  H     19.017450    4.774350   -8.314480
  H     20.945950    1.323320   -5.915150
  H    -18.950490   -5.106450    9.844440
  H    -20.331760   -1.483280   12.364430

----------------------------
CARTESIAN COORDINATES (A.U.)
----------------------------
  NO LB      ZA    FRAG     MASS         X           Y           Z
   0 C     4.0000    0    12.011   36.429271    7.277279  -14.859975
   1 C     4.0000    0    12.011   35.196659    4.962043  -15.136404
   2 C     4.0000    0    12.011   36.318174    2.941037  -13.737156
   3 C     4.0000    0    12.011   38.447121    3.664066  -12.348831
   4 S     6.0000    0    32.060   38.824499    6.722833  -12.917639
   5 H     1.0000    0     1.008   33.115863    4.933905  -15.688865
   6 C     4.0000    0    12.011   34.982440    0.218452  -13.972408
   7 C     4.0000    0    12.011   31.797212    0.288467  -13.662928
   8 C     4.0000    0    12.011   30.538692    0.763204  -16.547236
   9 H     1.0000    0     1.008   28.466079    1.400911  -16.287512
  10 H     1.0000    0     1.008   31.593859    2.252440  -17.726009
  11 H     1.0000    0     1.008   31.089000   -1.587181  -12.832072
  12 H     1.0000    0     1.008   31.244033    1.934891  -12.354217
  13 H     1.0000    0     1.008   35.547166   -1.388930  -12.609122
  14 H     1.0000    0     1.008   35.439754   -0.557242  -15.995606
  15 C     4.0000    0    12.011   30.685146   -1.881468  -18.105920
  16 C     4.0000    0    12.011   29.415760   -1.646405  -21.002851
  17 C     4.0000    0    12.011   26.351759   -2.461349  -20.924786
  18 H     1.0000    0     1.008   25.200915   -1.075103  -22.163237
  19 H     1.0000    0     1.008   25.611647   -2.381830  -18.867309
  20 H     1.0000    0     1.008   26.137785   -4.497114  -21.696210
  21 H     1.0000    0     1.008   29.592110    0.408049  -21.702390
  22 H     1.0000    0     1.008   30.484646   -2.974410  -22.356500
  23 H     1.0000    0     1.008   32.766264   -2.495100  -18.368554
  24 H     1.0000    0     1.008   29.642622   -3.450489  -16.996953
  25 C     4.0000    0    12.011  -36.299012   -7.840984   19.312377
  26 C     4.0000    0    12.011  -36.125309   -5.531304   18.050947
  27 C     4.0000    0    12.011  -36.930786   -3.409860   19.517526
  28 C     4.0000    0    12.011  -37.744634   -4.047604   21.949301
  29 S     6.0000    0    32.060  -37.429220   -7.158963   22.153978
  30 H     1.0000    0     1.008  -36.242207   -5.479733   15.866689
  31 C     4.0000    0    12.011  -36.703168   -0.708666   18.094071
  32 C     4.0000    0    12.011  -33.917088   -0.789887   16.338232
  33 C     4.0000    0    12.011  -32.262312    1.183195   14.387713
  34 H     1.0000    0     1.008  -33.455428    2.986977   14.115139
  35 H     1.0000    0     1.008  -32.077251    0.164784   12.459871
  36 H     1.0000    0     1.008  -32.450188   -1.444733   17.817963
  37 H     1.0000    0     1.008  -34.299625   -2.413161   14.922959
  38 H     1.0000    0     1.008  -38.376029   -0.394991   16.724983
  39 H     1.0000    0     1.008  -36.568147    0.941651   19.514937
  40 C     4.0000    0    12.011  -29.451250    1.919489   15.407542
  41 C     4.0000    0    12.011  -27.273624    2.166968   13.067551
  42 C     4.0000    0    12.011  -24.311799    2.674548   14.109017
  43 H     1.0000    0     1.008  -24.377751    3.730300   16.022062
  44 H     1.0000    0     1.008  -23.221465    3.876017   12.643005
  45 H     1.0000    0     1.008  -23.304840    0.749182   14.370007
  46 H     1.0000    0     1.008  -27.284905    0.312712   11.926912
  47 H     1.0000    0     1.008  -27.845152    3.823936   11.778398
  48 H     1.0000    0     1.008  -28.722250    0.403664   16.795999
  49 H     1.0000    0     1.008  -29.532149    3.845347   16.434948
  50 H     1.0000    0     1.008   35.937772    9.022214  -15.712090
  51 H     1.0000    0     1.008   39.582109    2.500712  -11.178014
  52 H     1.0000    0     1.008  -35.811236   -9.649792   18.603296
  53 H     1.0000    0     1.008  -38.421458   -2.802993   23.365387

--------------------------------
INTERNAL COORDINATES (ANGSTROEM)
--------------------------------
 C      0   0   0     0.000000000000     0.00000000     0.00000000
 C      1   0   0     1.395670276319     0.00000000     0.00000000
 C      2   1   0     1.429772986806   114.10126781     0.00000000
 C      3   2   1     1.398333096619   113.69347073     0.00000000
 S      1   2   3     1.658039467443   105.48021034     0.00000000
 H      2   1   3     1.139356602079   119.34253868   155.55138060
 C      3   2   1     1.609603515963   116.56339775   179.91938460
 C      7   3   2     1.693892593378   114.19986388   313.60265297
 C      8   7   3     1.684120858163   108.00734059    88.91067265
 H      9   8   7     1.155722879241   108.12294196   196.62635652
 H      9   8   7     1.149753395385   113.69665051   317.78403485
 H      8   7   3     1.148441450097   110.04953289   209.36595053
 H      8   7   3     1.150816695656   109.13865789   330.08223925
 H      7   3   2     1.154666839439   119.82753809   191.78910151
 H      7   3   2     1.171881575630   107.06760014    72.53211274
 C      9   8   7     1.626325469394   108.20599235    76.43710200
 C     16   9   8     1.678318326510   112.35844443   178.69390541
 C     17  16   9     1.678279189706   110.19079212   267.93310962
 H     18  17  16     1.156936763397   109.37067842   138.25341868
 H     18  17  16     1.157834427628   109.91368104    18.17508234
 H     18  17  16     1.157582307959   108.96283094   258.29117363
 H     17  16   9     1.152250174094   109.32720870    27.93323846
 H     17  16   9     1.151915449067   109.04172502   147.78789151
 H     16   9   8     1.156536275782   110.36092758   298.00932056
 H     16   9   8     1.156768555978   109.73322559    57.24823825
 C     20  18  17    38.598827661162   140.94991919   172.76426807
 C     26  20  18     1.395664146455    68.17387460   285.01054518
 C     27  26  20     1.429774936275   114.10167905   221.95161742
 C     28  27  26     1.398329927056   113.69326349     0.00000000
 S     26  20  18     1.658040855528   139.87001526   196.67405021
 H     27  26  20     1.157835801528   119.64253387    68.54821033
 C     28  27  26     1.620222755735   114.72020267   179.16442212
 C     32  28  27     1.743219995239   106.79355333   321.61225844
 C     33  32  28     1.709484878523   137.73099750   180.98571239
 H     34  33  32     1.153491085748   107.49018670   355.00331504
 H     34  33  32     1.157917043747   106.91886098   238.39284660
 H     33  32  28     1.155767599909   102.37499997   309.23712976
 H     33  32  28     1.157477883072   102.43081332    62.67819527
 H     32  28  27     1.155892857405   111.17106178    79.78769612
 H     32  28  27     1.154605573648   111.66254292   203.44017004
 C     34  33  32     1.629681026551   114.43420582   117.57702760
 C     41  34  33     1.696577035386   113.37473547   143.48237172
 C     42  41  34     1.682974314510   113.94509534   185.07384447
 H     43  42  41     1.156794548742   109.60645788   331.71149451
 H     43  42  41     1.157138476113   109.42125546   211.43102299
 H     43  42  41     1.158054338665   109.09617702    91.64527703
 H     42  41  34     1.152033382242   108.24862677   305.48962573
 H     42  41  34     1.151383514994   108.22871444    64.30635251
 H     41  34  33     1.154162007735   110.47141173    23.47993032
 H     41  34  33     1.155866001274   109.43599021   263.45244355
 H      1   2   3     1.060002961741   127.26008244   180.00065864
 H      4   3   2     1.059994028945   127.20614322   180.00011223
 H     26  20  18     1.060008037564    71.07147501    70.78379064
 H     29  28  27     1.059999669623   127.20629030   180.00004264

---------------------------
INTERNAL COORDINATES (A.U.)
---------------------------
 C      0   0   0     0.000000000000     0.00000000     0.00000000
 C      1   0   0     2.637434595497     0.00000000     0.00000000
 C      2   1   0     2.701879378742   114.10126781     0.00000000
 C      3   2   1     2.642466596608   113.69347073     0.00000000
 S      1   2   3     3.133240512701   105.48021034     0.00000000
 H      2   1   3     2.153071946804   119.34253868   155.55138060
 C      3   2   1     3.041709829367   116.56339775   179.91938460
 C      7   3   2     3.200993101762   114.19986388   313.60265297
 C      8   7   3     3.182527198353   108.00734059    88.91067265
 H      9   8   7     2.183999728472   108.12294196   196.62635652
 H      9   8   7     2.172719038824   113.69665051   317.78403485
 H      8   7   3     2.170239821526   110.04953289   209.36595053
 H      8   7   3     2.174728385134   109.13865789   330.08223925
 H      7   3   2     2.182004102460   119.82753809   191.78910151
 H      7   3   2     2.214535239328   107.06760014    72.53211274
 C      9   8   7     3.073309741776   108.20599235    76.43710200
 C     16   9   8     3.171562002645   112.35844443   178.69390541
 C     17  16   9     3.171488044803   110.19079212   267.93310962
 H     18  17  16     2.186293637086   109.37067842   138.25341868
 H     18  17  16     2.187989976642   109.91368104    18.17508234
 H     18  17  16     2.187513539515   108.96283094   258.29117363
 H     17  16   9     2.177437266801   109.32720870    27.93323846
 H     17  16   9     2.176804728170   109.04172502   147.78789151
 H     16   9   8     2.185536825173   110.36092758   298.00932056
 H     16   9   8     2.185975771130   109.73322559    57.24823825
 C     20  18  17    72.941213370021   140.94991919   172.76426807
 C     26  20  18     2.637423011733    68.17387460   285.01054518
 C     27  26  20     2.701883062704   114.10167905   221.95161742
 C     28  27  26     2.642460607002   113.69326349     0.00000000
 S     26  20  18     3.133243135800   139.87001526   196.67405021
 H     27  26  20     2.187992572937   119.64253387    68.54821033
 C     28  27  26     3.061777284285   114.72020267   179.16442212
 C     32  28  27     3.294208382177   106.79355333   321.61225844
 C     33  32  28     3.230458250489   137.73099750   180.98571239
 H     34  33  32     2.179782249983   107.49018670   355.00331504
 H     34  33  32     2.188146098482   106.91886098   238.39284660
 H     33  32  28     2.184084238288   102.37499997   309.23712976
 H     33  32  28     2.187316205076   102.43081332    62.67819527
 H     32  28  27     2.184320940651   111.17106178    79.78769612
 H     32  28  27     2.181888326895   111.66254292   203.44017004
 C     34  33  32     3.079650825829   114.43420582   117.57702760
 C     41  34  33     3.206065961980   113.37473547   143.48237172
 C     42  41  34     3.180360544848   113.94509534   185.07384447
 H     43  42  41     2.186024890336   109.60645788   331.71149451
 H     43  42  41     2.186674818876   109.42125546   211.43102299
 H     43  42  41     2.188405548275   109.09617702    91.64527703
 H     42  41  34     2.177027589572   108.24862677   305.48962573
 H     42  41  34     2.175799518450   108.22871444    64.30635251
 H     41  34  33     2.181050108797   110.47141173    23.47993032
 H     41  34  33     2.184270189918   109.43599021   263.45244355
 H      1   2   3     2.003115298836   127.26008244   180.00065864
 H      4   3   2     2.003098418299   127.20614322   180.00011223
 H     26  20  18     2.003124890751    71.07147501    70.78379064
 H     29  28  27     2.003109077634   127.20629030   180.00004264

----------------------------
SLATER BASIS SET DIM= 120
----------------------------
  0 C     2 shells
 l=0 nsto= 1
    2       1.625000000000        1.000000000000
 l=1 nsto= 1
    2       1.625000000000        1.000000000000
  1 C     2 shells
 l=0 nsto= 1
    2       1.625000000000        1.000000000000
 l=1 nsto= 1
    2       1.625000000000        1.000000000000
  2 C     2 shells
 l=0 nsto= 1
    2       1.625000000000        1.000000000000
 l=1 nsto= 1
    2       1.625000000000        1.000000000000
  3 C     2 shells
 l=0 nsto= 1
    2       1.625000000000        1.000000000000
 l=1 nsto= 1
    2       1.625000000000        1.000000000000
  4 S     2 shells
 l=0 nsto= 1
    3       1.925000000000        1.000000000000
 l=1 nsto= 1
    3       1.925000000000        1.000000000000
  5 H     1 shells
 l=0 nsto= 1
    1       1.200000000000        1.000000000000
  6 C     2 shells
 l=0 nsto= 1
    2       1.625000000000        1.000000000000
 l=1 nsto= 1
    2       1.625000000000        1.000000000000
  7 C     2 shells
 l=0 nsto= 1
    2       1.625000000000        1.000000000000
 l=1 nsto= 1
    2       1.625000000000        1.000000000000
  8 C     2 shells
 l=0 nsto= 1
    2       1.625000000000        1.000000000000
 l=1 nsto= 1
    2       1.625000000000        1.000000000000
  9 H     1 shells
 l=0 nsto= 1
    1       1.200000000000        1.000000000000
 10 H     1 shells
 l=0 nsto= 1
    1       1.200000000000        1.000000000000
 11 H     1 shells
 l=0 nsto= 1
    1       1.200000000000        1.000000000000
 12 H     1 shells
 l=0 nsto= 1
    1       1.200000000000        1.000000000000
 13 H     1 shells
 l=0 nsto= 1
    1       1.200000000000        1.000000000000
 14 H     1 shells
 l=0 nsto= 1
    1       1.200000000000        1.000000000000
 15 C     2 shells
 l=0 nsto= 1
    2       1.625000000000        1.000000000000
 l=1 nsto= 1
    2       1.625000000000        1.000000000000
 16 C     2 shells
 l=0 nsto= 1
    2       1.625000000000        1.000000000000
 l=1 nsto= 1
    2       1.625000000000        1.000000000000
 17 C     2 shells
 l=0 nsto= 1
    2       1.625000000000        1.000000000000
 l=1 nsto= 1
    2       1.625000000000        1.000000000000
 18 H     1 shells
 l=0 nsto= 1
    1       1.200000000000        1.000000000000
 19 H     1 shells
 l=0 nsto= 1
    1       1.200000000000        1.000000000000
 20 H     1 shells
 l=0 nsto= 1
    1       1.200000000000        1.000000000000
 21 H     1 shells
 l=0 nsto= 1
    1       1.200000000000        1.000000000000
 22 H     1 shells
 l=0 nsto= 1
    1       1.200000000000        1.000000000000
 23 H     1 shells
 l=0 nsto= 1
    1       1.200000000000        1.000000000000
 24 H     1 shells
 l=0 nsto= 1
    1       1.200000000000        1.000000000000
 25 C     2 shells
 l=0 nsto= 1
    2       1.625000000000        1.000000000000
 l=1 nsto= 1
    2       1.625000000000        1.000000000000
 26 C     2 shells
 l=0 nsto= 1
    2       1.625000000000        1.000000000000
 l=1 nsto= 1
    2       1.625000000000        1.000000000000
 27 C     2 shells
 l=0 nsto= 1
    2       1.625000000000        1.000000000000
 l=1 nsto= 1
    2       1.625000000000        1.000000000000
 28 C     2 shells
 l=0 nsto= 1
    2       1.625000000000        1.000000000000
 l=1 nsto= 1
    2       1.625000000000        1.000000000000
 29 S     2 shells
 l=0 nsto= 1
    3       1.925000000000        1.000000000000
 l=1 nsto= 1
    3       1.925000000000        1.000000000000
 30 H     1 shells
 l=0 nsto= 1
    1       1.200000000000        1.000000000000
 31 C     2 shells
 l=0 nsto= 1
    2       1.625000000000        1.000000000000
 l=1 nsto= 1
    2       1.625000000000        1.000000000000
 32 C     2 shells
 l=0 nsto= 1
    2       1.625000000000        1.000000000000
 l=1 nsto= 1
    2       1.625000000000        1.000000000000
 33 C     2 shells
 l=0 nsto= 1
    2       1.625000000000        1.000000000000
 l=1 nsto= 1
    2       1.625000000000        1.000000000000
 34 H     1 shells
 l=0 nsto= 1
    1       1.200000000000        1.000000000000
 35 H     1 shells
 l=0 nsto= 1
    1       1.200000000000        1.000000000000
 36 H     1 shells
 l=0 nsto= 1
    1       1.200000000000        1.000000000000
 37 H     1 shells
 l=0 nsto= 1
    1       1.200000000000        1.000000000000
 38 H     1 shells
 l=0 nsto= 1
    1       1.200000000000        1.000000000000
 39 H     1 shells
 l=0 nsto= 1
    1       1.200000000000        1.000000000000
 40 C     2 shells
 l=0 nsto= 1
    2       1.625000000000        1.000000000000
 l=1 nsto= 1
    2       1.625000000000        1.000000000000
 41 C     2 shells
 l=0 nsto= 1
    2       1.625000000000        1.000000000000
 l=1 nsto= 1
    2       1.625000000000        1.000000000000
 42 C     2 shells
 l=0 nsto= 1
    2       1.625000000000        1.000000000000
 l=1 nsto= 1
    2       1.625000000000        1.000000000000
 43 H     1 shells
 l=0 nsto= 1
    1       1.200000000000        1.000000000000
 44 H     1 shells
 l=0 nsto= 1
    1       1.200000000000        1.000000000000
 45 H     1 shells
 l=0 nsto= 1
    1       1.200000000000        1.000000000000
 46 H     1 shells
 l=0 nsto= 1
    1       1.200000000000        1.000000000000
 47 H     1 shells
 l=0 nsto= 1
    1       1.200000000000        1.000000000000
 48 H     1 shells
 l=0 nsto= 1
    1       1.200000000000        1.000000000000
 49 H     1 shells
 l=0 nsto= 1
    1       1.200000000000        1.000000000000
 50 H     1 shells
 l=0 nsto= 1
    1       1.200000000000        1.000000000000
 51 H     1 shells
 l=0 nsto= 1
    1       1.200000000000        1.000000000000
 52 H     1 shells
 l=0 nsto= 1
    1       1.200000000000        1.000000000000
 53 H     1 shells
 l=0 nsto= 1
    1       1.200000000000        1.000000000000
------------------------------------------------------------------------------
                           ORCA NDO INTEGRAL CALCULATION
------------------------------------------------------------------------------

--------------
NDO PARAMETERS
--------------

Gamma integral treatment              ... Mataga-Nishimoto
Nuclear repulsuion treatment          ... Direct (ZA*ZB/RAB)
Interaction factors:
s-s (sigma) =    1.0000
s-p (sigma) =    1.0000
s-d (sigma) =    1.0000
p-p (sigma) =    1.2670  p-p(pi) =    0.5850
p-d (sigma) =    1.0000  p-d(pi) =    1.0000
d-d (sigma) =    1.0000  d-d(pi) =    1.0000 d-d (delta) =    1.0000

fGamma parameter for Mataga-Nishimoto gamma integrals:    1.2000

--------------------------
Parameters for Element H :
--------------------------
 One-electron parameters (in eV)
  U(s)  =   -13.060000 Beta(s) =    12.000000 Neff(s) =     1.000000
 One-center electron repulsion parameters (in eV)
  G(s,s)=    12.850000
--------------------------
Parameters for Element C :
--------------------------
 One-electron parameters (in eV)
  U(s)  =   -50.870766 Beta(s) =    17.000000 Neff(s) =     2.000000
  U(p)  =   -41.599980 Beta(p) =    17.000000 Neff(p) =     2.000000 
 One-center electron repulsion parameters (in eV)
  G(s,s)=    11.110000
  G(s,p)=    11.110000 G(p,p)  =    11.110000
 Slater-Condon parameters (in eV)
 F2(p,p)=     4.5098 G1(s,p)=    6.8977
--------------------------
Parameters for Element S :
--------------------------
 One-electron parameters (in eV)
  U(s)  =   -69.509597 Beta(s) =    15.000000 Neff(s) =     2.000000
  U(p)  =   -60.725746 Beta(p) =    15.000000 Neff(p) =     4.000000 
 One-center electron repulsion parameters (in eV)
  G(s,s)=    10.090000
  G(s,p)=    10.090000 G(p,p)  =    10.090000
 Slater-Condon parameters (in eV)
 F2(p,p)=     4.5377 G1(s,p)=    3.0756

 Number of atoms                    ....   54
 Number of basis functions          ....  120

 Overlap integrals                  .... done
 One electron matrix                .... done
 Nuclear repulsion                  .... done
 Integral list                      .... done
 Electron-electron repulsion        .... done
-------------------------------------------------------------------------------
                                 ORCA SCF
-------------------------------------------------------------------------------

------------
SCF SETTINGS
------------
Hamiltonian:
 ZDO-Hamiltonian        Method          .... INDO


General Settings:
 Integral files         IntName         .... /home/mattyjones/Software/morphct/tests/output_EZ/donor_polymer/chromophores/input_orca/pair/00002-00024
 Hartree-Fock type      HFTyp           .... RHF
 Total Charge           Charge          ....    0
 Multiplicity           Mult            ....    1
 Number of Electrons    NEL             ....  124
 Basis Dimension        Dim             ....  120
 Nuclear Repulsion      ENuc            ....    645.2291788323 Eh

Convergence Acceleration:
 DIIS                   CNVDIIS         .... on
   Start iteration      DIISMaxIt       ....    12
   Startup error        DIISStart       ....  0.200000
   # of expansion vecs  DIISMaxEq       ....     5
   Bias factor          DIISBfac        ....   1.050
   Max. coefficient     DIISMaxC        ....  10.000
 Newton-Raphson         CNVNR           .... off
 SOSCF                  CNVSOSCF        .... on
   Start iteration      SOSCFMaxIt      ....   150
   Startup grad/error   SOSCFStart      ....  0.003300
 Level Shifting         CNVShift        .... on
   Level shift para.    LevelShift      ....    0.2500
   Turn off err/grad.   ShiftErr        ....    0.0010
 Zerner damping         CNVZerner       .... off
 Static damping         CNVDamp         .... on
   Fraction old density DampFac         ....    0.7000
   Max. Damping (<1)    DampMax         ....    0.9800
   Min. Damping (>=0)   DampMin         ....    0.0000
   Turn off err/grad.   DampErr         ....    0.1000
 Fernandez-Rico         CNVRico         .... off

SCF Procedure:
 Maximum # iterations   MaxIter         ....   125
 SCF integral mode      SCFMode         .... Conventional
 Integral Buffer length BufferLength    .... 1048576
 Integral index format  IndFormat       ....     0
 Integral value format  ValFormat       ....     0
 Integral Storage       Thresh          ....  1.000e-08 Eh

Convergence Tolerance:
 Convergence Check Mode ConvCheckMode   .... Total+1el-Energy
 Convergence forced     ConvForced      .... 0
 Energy Change          TolE            ....  1.000e-06 Eh
 1-El. energy change                    ....  1.000e-03 Eh
 Orbital Gradient       TolG            ....  5.000e-05
 Orbital Rotation angle TolX            ....  5.000e-05
 DIIS Error             TolErr          ....  1.000e-06


Diagonalization of the overlap matrix:
Smallest eigenvalue                        ... 1.693e-01
Time for diagonalization                   ...    0.003 sec
Threshold for overlap eigenvalues          ... 1.000e-08
Number of eigenvalues below threshold      ... 0
Time for construction of square roots      ...    0.000 sec
Total time needed                          ...    0.003 sec

-------------------------------
INITIAL GUESS: EXTENDED HUECKEL
-------------------------------
EHT matrix was read from disk
EHT matrix was diagonalized
Initial density was built
                      ------------------
                      INITIAL GUESS DONE
                      ------------------

 InCore treatment chosen:
   Memory dedicated               ...    1024 MB
   Memory needed                  ...      0 MB
   Number of tiny    integrals    ...       0
   Number of small   integrals    ...       0
   Number of regular integrals    ...    7392

--------------
SCF ITERATIONS
--------------
ITER       Energy         Delta-E        Max-DP      RMS-DP      [F,P]     Damp
  0    -19.6554139158   0.000000000000 0.04517753  0.00146355  0.1160965 0.7000
  1    -19.6977463879  -0.042332472142 0.04414623  0.00138117  0.0793648 0.7000
                               ***Turning on DIIS***
  2    -19.7290819345  -0.031335546534 0.11648946  0.00355028  0.0480730 0.0000
  3    -19.8086266292  -0.079544694691 0.02084748  0.00074448  0.0217614 0.0000
  4    -19.7957019691   0.012924660054 0.01506401  0.00051371  0.0088350 0.0000
  5    -19.8136281293  -0.017926160146 0.01055338  0.00034897  0.0052167 0.0000
  6    -19.8161423012  -0.002514171910 0.00824388  0.00024885  0.0029562 0.0000
                      *** Initiating the SOSCF procedure ***
                           *** Shutting down DIIS ***
                      *** Re-Reading the Fockian *** 
                      *** Removing any level shift *** 
ITER      Energy       Delta-E        Grad      Rot      Max-DP    RMS-DP
  7    -19.81203265   0.0041096538  0.003084  0.003084  0.005000  0.000142
  8    -19.80957877   0.0024538775  0.000856  0.002404  0.002520  0.000067
  9    -19.80959528  -0.0000165067  0.000377  0.002383  0.002919  0.000073
 10    -19.80960153  -0.0000062491  0.000040  0.000086  0.000186  0.000005
                 **** Energy Check signals convergence ****
              ***Rediagonalizing the Fockian in SOSCF/NRSCF***

               *****************************************************
               *                     SUCCESS                       *
               *           SCF CONVERGED AFTER  11 CYCLES          *
               *****************************************************


----------------
TOTAL SCF ENERGY
----------------

Total Energy       :          -19.80960159 Eh            -539.04666 eV

Components:
Nuclear Repulsion  :          645.22917883 Eh           17557.57857 eV
Electronic Energy  :         -665.03878042 Eh          -18096.62523 eV
One Electron Energy:        -1239.66907851 Eh          -33733.11058 eV
Two Electron Energy:          574.63029809 Eh           15636.48535 eV


---------------
SCF CONVERGENCE
---------------

  Last Energy change         ...   -6.1495e-08  Tolerance :   1.0000e-06
  Last MAX-Density change    ...    9.2649e-05  Tolerance :   1.0000e-05
  Last RMS-Density change    ...    1.7068e-06  Tolerance :   1.0000e-06
  Last Orbital Gradient      ...    1.3034e-05  Tolerance :   5.0000e-05
  Last Orbital Rotation      ...    3.5361e-05  Tolerance :   5.0000e-05

             **** THE GBW FILE WAS UPDATED (/home/mattyjones/Software/morphct/tests/output_EZ/donor_polymer/chromophores/input_orca/pair/00002-00024.gbw) ****
             **** DENSITY FILE WAS UPDATED (/home/mattyjones/Software/morphct/tests/output_EZ/donor_polymer/chromophores/input_orca/pair/00002-00024.scfp.tmp) ****
             **** ENERGY FILE WAS UPDATED (/home/mattyjones/Software/morphct/tests/output_EZ/donor_polymer/chromophores/input_orca/pair/00002-00024.en.tmp) ****
----------------
ORBITAL ENERGIES
----------------

  NO   OCC          E(Eh)            E(eV) 
   0   2.0000      -1.565275       -42.5933 
   1   2.0000      -1.563646       -42.5490 
   2   2.0000      -1.429234       -38.8914 
   3   2.0000      -1.394220       -37.9386 
   4   2.0000      -1.301259       -35.4091 
   5   2.0000      -1.293513       -35.1983 
   6   2.0000      -1.191957       -32.4348 
   7   2.0000      -1.165759       -31.7219 
   8   2.0000      -1.122370       -30.5412 
   9   2.0000      -1.107637       -30.1403 
  10   2.0000      -1.025589       -27.9077 
  11   2.0000      -1.015891       -27.6438 
  12   2.0000      -0.977384       -26.5960 
  13   2.0000      -0.948095       -25.7990 
  14   2.0000      -0.895532       -24.3687 
  15   2.0000      -0.891137       -24.2491 
  16   2.0000      -0.873271       -23.7629 
  17   2.0000      -0.870992       -23.7009 
  18   2.0000      -0.835582       -22.7373 
  19   2.0000      -0.830962       -22.6116 
  20   2.0000      -0.784927       -21.3589 
  21   2.0000      -0.771656       -20.9978 
  22   2.0000      -0.739370       -20.1193 
  23   2.0000      -0.728574       -19.8255 
  24   2.0000      -0.703330       -19.1386 
  25   2.0000      -0.702910       -19.1272 
  26   2.0000      -0.673021       -18.3138 
  27   2.0000      -0.663947       -18.0669 
  28   2.0000      -0.648018       -17.6335 
  29   2.0000      -0.629689       -17.1347 
  30   2.0000      -0.627627       -17.0786 
  31   2.0000      -0.603644       -16.4260 
  32   2.0000      -0.603069       -16.4103 
  33   2.0000      -0.589012       -16.0278 
  34   2.0000      -0.576925       -15.6989 
  35   2.0000      -0.576672       -15.6921 
  36   2.0000      -0.572549       -15.5799 
  37   2.0000      -0.560120       -15.2416 
  38   2.0000      -0.554989       -15.1020 
  39   2.0000      -0.552304       -15.0290 
  40   2.0000      -0.536115       -14.5884 
  41   2.0000      -0.528491       -14.3810 
  42   2.0000      -0.527234       -14.3468 
  43   2.0000      -0.509227       -13.8568 
  44   2.0000      -0.501918       -13.6579 
  45   2.0000      -0.501088       -13.6353 
  46   2.0000      -0.495267       -13.4769 
  47   2.0000      -0.494588       -13.4584 
  48   2.0000      -0.487221       -13.2580 
  49   2.0000      -0.482675       -13.1343 
  50   2.0000      -0.479352       -13.0438 
  51   2.0000      -0.477515       -12.9939 
  52   2.0000      -0.470590       -12.8054 
  53   2.0000      -0.469604       -12.7786 
  54   2.0000      -0.452910       -12.3243 
  55   2.0000      -0.452024       -12.3002 
  56   2.0000      -0.436703       -11.8833 
  57   2.0000      -0.427942       -11.6449 
  58   2.0000      -0.352048        -9.5797 
  59   2.0000      -0.349957        -9.5228 
  60   2.0000      -0.305209        -8.3052 
  61   2.0000      -0.304955        -8.2982 
  62   0.0000       0.006306         0.1716 
  63   0.0000       0.007044         0.1917 
  64   0.0000       0.060604         1.6491 
  65   0.0000       0.064297         1.7496 
  66   0.0000       0.066490         1.8093 
  67   0.0000       0.084349         2.2952 
  68   0.0000       0.090909         2.4738 
  69   0.0000       0.091635         2.4935 
  70   0.0000       0.107015         2.9120 
  71   0.0000       0.107191         2.9168 
  72   0.0000       0.107670         2.9299 
  73   0.0000       0.110215         2.9991 
  74   0.0000       0.123013         3.3474 
  75   0.0000       0.125786         3.4228 
  76   0.0000       0.140859         3.8330 
  77   0.0000       0.141586         3.8528 
  78   0.0000       0.152855         4.1594 
  79   0.0000       0.157067         4.2740 
  80   0.0000       0.165214         4.4957 
  81   0.0000       0.167908         4.5690 
  82   0.0000       0.175280         4.7696 
  83   0.0000       0.175834         4.7847 
  84   0.0000       0.201519         5.4836 
  85   0.0000       0.209246         5.6939 
  86   0.0000       0.229001         6.2314 
  87   0.0000       0.230635         6.2759 
  88   0.0000       0.236883         6.4459 
  89   0.0000       0.237230         6.4554 
  90   0.0000       0.238294         6.4843 
  91   0.0000       0.238437         6.4882 
  92   0.0000       0.239176         6.5083 
  93   0.0000       0.239826         6.5260 
  94   0.0000       0.241229         6.5642 
  95   0.0000       0.242462         6.5977 
  96   0.0000       0.242787         6.6066 
  97   0.0000       0.243798         6.6341 
  98   0.0000       0.244663         6.6576 
  99   0.0000       0.246108         6.6970 
 100   0.0000       0.248679         6.7669 
 101   0.0000       0.265061         7.2127 
 102   0.0000       0.266045         7.2395 
 103   0.0000       0.266674         7.2566 
 104   0.0000       0.268234         7.2990 
 105   0.0000       0.271541         7.3890 
 106   0.0000       0.283792         7.7224 
 107   0.0000       0.290167         7.8958 
 108   0.0000       0.299317         8.1448 
 109   0.0000       0.307826         8.3764 
 110   0.0000       0.310058         8.4371 
 111   0.0000       0.310330         8.4445 
 112   0.0000       0.334679         9.1071 
 113   0.0000       0.337151         9.1743 
 114   0.0000       0.343285         9.3413 
 115   0.0000       0.353302         9.6138 
 116   0.0000       0.418862        11.3978 
 117   0.0000       0.419747        11.4219 
 118   0.0000       0.423983        11.5372 
 119   0.0000       0.426596        11.6083 
-------
TIMINGS
-------

Total SCF time: 0 days 0 hours 0 min 0 sec 

Total time                  ....       0.132 sec
Sum of individual times     ....       0.104 sec  ( 79.3%)

Fock matrix formation       ....       0.046 sec  ( 34.8%)
Diagonalization             ....       0.030 sec  ( 22.5%)
Density matrix formation    ....       0.003 sec  (  2.2%)
Population analysis         ....       0.000 sec  (  0.0%)
Initial guess               ....       0.003 sec  (  2.2%)
Orbital Transformation      ....       0.000 sec  (  0.0%)
Orbital Orthonormalization  ....       0.000 sec  (  0.0%)
DIIS solution               ....       0.007 sec  (  5.1%)
SOSCF solution              ....       0.016 sec  ( 12.5%)

-------------------------   --------------------
FINAL SINGLE POINT ENERGY       -19.809601587132
-------------------------   --------------------


                            ***************************************
                            *     ORCA property calculations      *
                            ***************************************

                                    ---------------------
                                    Active property flags
                                    ---------------------
   (+) Dipole Moment


------------------------------------------------------------------------------
                       ORCA ELECTRIC PROPERTIES CALCULATION
------------------------------------------------------------------------------

Dipole Moment Calculation                       ... on
Quadrupole Moment Calculation                   ... off
Polarizability Calculation                      ... off
GBWName                                         ... /home/mattyjones/Software/morphct/tests/output_EZ/donor_polymer/chromophores/input_orca/pair/00002-00024.gbw
Electron density file                           ... /home/mattyjones/Software/morphct/tests/output_EZ/donor_polymer/chromophores/input_orca/pair/00002-00024.scfp.tmp
The origin for moment calculation is the CENTER OF MASS  = ( 0.100713, -0.048694  1.176871)

-------------
DIPOLE MOMENT
-------------
                                X             Y             Z
Electronic contribution:      8.92839      -5.88507     133.73696
Nuclear contribution   :     -8.08215       3.08100     -69.94300
                        -----------------------------------------
Total Dipole Moment    :      0.84624      -2.80406      63.79396
                        -----------------------------------------
Magnitude (a.u.)       :     63.86117
Magnitude (Debye)      :    162.32218


Timings for individual modules:

Sum of individual times         ...        0.159 sec (=   0.003 min)
STO integral calculation        ...        0.017 sec (=   0.000 min)  10.8 %
SCF iterations                  ...        0.142 sec (=   0.002 min)  89.2 %
                             ****ORCA TERMINATED NORMALLY****
TOTAL RUN TIME: 0 days 0 hours 0 minutes 0 seconds 423 msec

