
                                 *****************
                                 * O   R   C   A *
                                 *****************

           --- An Ab Initio, DFT and Semiempirical electronic structure package ---

                  #######################################################
                  #                        -***-                        #
                  #  Department of molecular theory and spectroscopy    #
                  #              Directorship: Frank Neese              #
                  # Max Planck Institute for Chemical Energy Conversion #
                  #                  D-45470 Muelheim/Ruhr              #
                  #                       Germany                       #
                  #                                                     #
                  #                  All rights reserved                #
                  #                        -***-                        #
                  #######################################################


                         Program Version 4.0.1.2 - RELEASE -


 With contributions from (in alphabetic order):
   Daniel Aravena         : Magnetic Properties
   Michael Atanasov       : Ab Initio Ligand Field Theory
   Ute Becker             : Parallelization
   Martin Brehm           : Molecular dynamics
   Dmytro Bykov           : SCF Hessian
   Vijay G. Chilkuri      : MRCI spin determinant printing
   Dipayan Datta          : RHF DLPNO-CCSD density
   Achintya Kumar Dutta   : EOM-CC, STEOM-CC
   Dmitry Ganyushin       : Spin-Orbit,Spin-Spin,Magnetic field MRCI
   Yang Guo               : DLPNO-NEVPT2, CIM, IAO-localization
   Andreas Hansen         : Spin unrestricted coupled pair/coupled cluster methods
   Lee Huntington         : MR-EOM, pCC
   Robert Izsak           : Overlap fitted RIJCOSX, COSX-SCS-MP3, EOM
   Christian Kollmar      : KDIIS, OOCD, Brueckner-CCSD(T), CCSD density
   Simone Kossmann        : Meta GGA functionals, TD-DFT gradient, OOMP2, MP2 Hessian
   Martin Krupicka        : AUTO-CI
   Dagmar Lenk            : GEPOL surface
   Dimitrios Liakos       : Extrapolation schemes; parallel MDCI
   Dimitrios Manganas     : ROCIS; embedding schemes
   Dimitrios Pantazis     : SARC Basis sets
   Taras Petrenko         : DFT Hessian,TD-DFT gradient, ASA, ECA, R-Raman, ABS, FL, XAS/XES, NRVS
   Peter Pinski           : DLPNO-MP2
   Christoph Reimann      : Effective Core Potentials
   Marius Retegan         : Local ZFS, SOC
   Christoph Riplinger    : Optimizer, TS searches, QM/MM, DLPNO-CCSD(T), (RO)-DLPNO pert. Triples
   Tobias Risthaus        : Range-separated hybrids, TD-DFT gradient, RPA, STAB
   Michael Roemelt        : Restricted open shell CIS
   Masaaki Saitow         : Open-shell DLPNO
   Barbara Sandhoefer     : DKH picture change effects
   Kantharuban Sivalingam : CASSCF convergence, NEVPT2, FIC-MRCI
   Georgi Stoychev        : AutoAux
   Boris Wezisla          : Elementary symmetry handling
   Frank Wennmohs         : Technical directorship


 We gratefully acknowledge several colleagues who have allowed us to
 interface, adapt or use parts of their codes:
   Stefan Grimme, W. Hujo, H. Kruse,             : VdW corrections, initial TS optimization,
                  C. Bannwarth                     DFT functionals, gCP, sTDA/sTD-DF
   Ed Valeev                                     : LibInt (2-el integral package), F12 methods
   Garnet Chan, S. Sharma, J. Yang, R. Olivares  : DMRG
   Ulf Ekstrom                                   : XCFun DFT Library
   Mihaly Kallay                                 : mrcc  (arbitrary order and MRCC methods)
   Andreas Klamt, Michael Diedenhofen            : otool_cosmo (COSMO solvation model)
   Jiri Pittner, Ondrej Demel                    : Mk-CCSD
   Frank Weinhold                                : gennbo (NPA and NBO analysis)
   Christopher J. Cramer and Donald G. Truhlar   : smd solvation model


 Your calculation uses the libint2 library for the computation of 2-el integrals
 For citations please refer to: http://libint.valeyev.net

 This ORCA versions uses:
   CBLAS   interface :  Fast vector & matrix operations
   LAPACKE interface :  Fast linear algebra routines
   SCALAPACK package :  Parallel linear algebra routines


leaving
Your calculation utilizes the basis: def2-SVP
   F. Weigend and R. Ahlrichs, Phys. Chem. Chem. Phys. 7, 3297 (2005).

================================================================================
                                        WARNINGS
                       Please study these warnings very carefully!
================================================================================

Warning: TCutStore was < 0. Adjusted to Thresh (uncritical)

WARNING: Direct SCF is incompatible with Method<>HF and Method<>DFT
  ===> : conventional SCF is chosen

WARNING: The NDO methods need Guess=HUECKEL or Guess=HCORE or Guess=MOREAD
  ===> : Guess is set to Hueckel

WARNING: The NDO methods need %rel::SOCType==1
  ===> : %rel::SOCType is set to 1

WARNING: The NDO methods cannot have frozencore=1
  ===> : %method FrozenCore=0 end

INFO   : the flag for use of LIBINT has been found!

================================================================================
                                       INPUT FILE
================================================================================
NAME = /home/mattyjones/Software/morphct/tests/output_EZ/donor_polymer/chromophores/input_orca/pair/00004-00023.inp
|  1> # ================================================================
|  2> # Orca input file made by Matty Jones
|  3> # ================================================================
|  4> ! ZINDO/S 
|  5> ! NOPOP
|  6> ! NOMOPRINT
|  7> * xyz 0   1
|  8>  C  -19.65878  3.64241  -6.16626
|  9>  C  -20.15459  2.44872  -6.69273
| 10>  C  -19.56233  1.27354  -6.13377
| 11>  C  -18.59396  1.54063  -5.16101
| 12>  S  -18.52252  3.19348  -5.04534
| 13>  H  -20.90311  2.38123  -7.55363
| 14>  C  -20.01827  -0.20702  -6.61653
| 15>  C  -21.67676  -0.69391  -6.51547
| 16>  C  -23.15448  -0.69097  -7.41523
| 17>  H  -23.63616  -1.71009  -7.11830
| 18>  H  -23.77013  0.14458  -6.88476
| 19>  H  -21.54882  -1.83309  -6.31301
| 20>  H  -22.00149  -0.18252  -5.52594
| 21>  H  -19.41307  -1.03352  -6.06980
| 22>  H  -19.77129  -0.30736  -7.75644
| 23>  C  -23.46603  -0.50832  -9.00899
| 24>  C  -23.67187  -1.94753  -9.89090
| 25>  C  -25.23109  -2.59912  -9.89943
| 26>  H  -25.31302  -3.39359  -9.06128
| 27>  H  -25.43224  -3.09832  -10.92431
| 28>  H  -26.00690  -1.76151  -9.71695
| 29>  H  -23.38845  -1.72199  -10.98563
| 30>  H  -22.95404  -2.73777  -9.46142
| 31>  H  -24.44055  0.10382  -9.13583
| 32>  H  -22.59712  0.07289  -9.50082
| 33>  C  26.02947  -0.05454  5.09052
| 34>  C  25.13666  -1.04033  5.51361
| 35>  C  24.07807  -0.55275  6.34181
| 36>  C  24.13529  0.82500  6.57387
| 37>  S  25.47379  1.35987  5.75366
| 38>  H  25.34761  -2.13735  5.86745
| 39>  C  22.99698  -1.63707  6.85684
| 40>  C  21.36666  -1.42505  7.28564
| 41>  C  20.60350  0.04511  7.60246
| 42>  H  21.17529  0.91084  7.10746
| 43>  H  19.52331  0.01137  7.20059
| 44>  H  20.76513  -1.87524  6.39955
| 45>  H  21.19786  -2.10860  8.20420
| 46>  H  23.45594  -2.14513  7.80881
| 47>  H  22.93445  -2.47510  6.03628
| 48>  C  20.61499  0.16320  9.22757
| 49>  C  19.90341  1.50603  9.91620
| 50>  C  19.14185  2.58215  8.87714
| 51>  H  18.60010  1.99025  8.04198
| 52>  H  19.93523  3.27957  8.40328
| 53>  H  18.36079  3.22052  9.43903
| 54>  H  19.19507  1.12106  10.72804
| 55>  H  20.77732  2.02247  10.42534
| 56>  H  20.05285  -0.75697  9.66407
| 57>  H  21.71129  0.11045  9.60082
| 58>  H  -19.94771  4.62815  -6.42786
| 59>  H  -18.02474  0.83450  -4.61241
| 60>  H  26.88285  -0.18300  4.47502
| 61>  H  23.46375  1.40592  7.15282
| 62> *
| 63> 
| 64>                          ****END OF INPUT****
================================================================================

                       ****************************
                       * Single Point Calculation *
                       ****************************

---------------------------------
CARTESIAN COORDINATES (ANGSTROEM)
---------------------------------
  C    -19.658780    3.642410   -6.166260
  C    -20.154590    2.448720   -6.692730
  C    -19.562330    1.273540   -6.133770
  C    -18.593960    1.540630   -5.161010
  S    -18.522520    3.193480   -5.045340
  H    -20.903110    2.381230   -7.553630
  C    -20.018270   -0.207020   -6.616530
  C    -21.676760   -0.693910   -6.515470
  C    -23.154480   -0.690970   -7.415230
  H    -23.636160   -1.710090   -7.118300
  H    -23.770130    0.144580   -6.884760
  H    -21.548820   -1.833090   -6.313010
  H    -22.001490   -0.182520   -5.525940
  H    -19.413070   -1.033520   -6.069800
  H    -19.771290   -0.307360   -7.756440
  C    -23.466030   -0.508320   -9.008990
  C    -23.671870   -1.947530   -9.890900
  C    -25.231090   -2.599120   -9.899430
  H    -25.313020   -3.393590   -9.061280
  H    -25.432240   -3.098320  -10.924310
  H    -26.006900   -1.761510   -9.716950
  H    -23.388450   -1.721990  -10.985630
  H    -22.954040   -2.737770   -9.461420
  H    -24.440550    0.103820   -9.135830
  H    -22.597120    0.072890   -9.500820
  C     26.029470   -0.054540    5.090520
  C     25.136660   -1.040330    5.513610
  C     24.078070   -0.552750    6.341810
  C     24.135290    0.825000    6.573870
  S     25.473790    1.359870    5.753660
  H     25.347610   -2.137350    5.867450
  C     22.996980   -1.637070    6.856840
  C     21.366660   -1.425050    7.285640
  C     20.603500    0.045110    7.602460
  H     21.175290    0.910840    7.107460
  H     19.523310    0.011370    7.200590
  H     20.765130   -1.875240    6.399550
  H     21.197860   -2.108600    8.204200
  H     23.455940   -2.145130    7.808810
  H     22.934450   -2.475100    6.036280
  C     20.614990    0.163200    9.227570
  C     19.903410    1.506030    9.916200
  C     19.141850    2.582150    8.877140
  H     18.600100    1.990250    8.041980
  H     19.935230    3.279570    8.403280
  H     18.360790    3.220520    9.439030
  H     19.195070    1.121060   10.728040
  H     20.777320    2.022470   10.425340
  H     20.052850   -0.756970    9.664070
  H     21.711290    0.110450    9.600820
  H    -19.947710    4.628150   -6.427860
  H    -18.024740    0.834500   -4.612410
  H     26.882850   -0.183000    4.475020
  H     23.463750    1.405920    7.152820

----------------------------
CARTESIAN COORDINATES (A.U.)
----------------------------
  NO LB      ZA    FRAG     MASS         X           Y           Z
   0 C     4.0000    0    12.011  -37.149710    6.883157  -11.652543
   1 C     4.0000    0    12.011  -38.086655    4.627410  -12.647427
   2 C     4.0000    0    12.011  -36.967446    2.406642  -11.591145
   3 C     4.0000    0    12.011  -35.137492    2.911369   -9.752895
   4 S     6.0000    0    32.060  -35.002490    6.034803   -9.534311
   5 H     1.0000    0     1.008  -39.501153    4.499873  -14.274292
   6 C     4.0000    0    12.011  -37.829048   -0.391211  -12.503430
   7 C     4.0000    0    12.011  -40.963140   -1.311300  -12.312454
   8 C     4.0000    0    12.011  -43.755626   -1.305744  -14.012754
   9 H     1.0000    0     1.008  -44.665869   -3.231602  -13.451638
  10 H     1.0000    0     1.008  -44.919036    0.273217  -13.010311
  11 H     1.0000    0     1.008  -40.721368   -3.464038  -11.929860
  12 H     1.0000    0     1.008  -41.576791   -0.344913  -10.442513
  13 H     1.0000    0     1.008  -36.685386   -1.953070  -11.470260
  14 H     1.0000    0     1.008  -37.362323   -0.580826  -14.657547
  15 C     4.0000    0    12.011  -44.344370   -0.960586  -17.024524
  16 C     4.0000    0    12.011  -44.733351   -3.680298  -18.691092
  17 C     4.0000    0    12.011  -47.679850   -4.911625  -18.707212
  18 H     1.0000    0     1.008  -47.834675   -6.412956  -17.123338
  19 H     1.0000    0     1.008  -48.059969   -5.854976  -20.643954
  20 H     1.0000    0     1.008  -49.145919   -3.328771  -18.362374
  21 H     1.0000    0     1.008  -44.197765   -3.254090  -20.759832
  22 H     1.0000    0     1.008  -43.376849   -5.173636  -17.879493
  23 H     1.0000    0     1.008  -46.185946    0.196191  -17.264217
  24 H     1.0000    0     1.008  -42.702368    0.137742  -17.953948
  25 C     4.0000    0    12.011   49.188570   -0.103066    9.619689
  26 C     4.0000    0    12.011   47.501403   -1.965939   10.419213
  27 C     4.0000    0    12.011   45.500958   -1.044546   11.984284
  28 C     4.0000    0    12.011   45.609088    1.559024   12.422814
  29 S     6.0000    0    32.060   48.138487    2.569782   10.872842
  30 H     1.0000    0     1.008   47.900041   -4.039006   11.087874
  31 C     4.0000    0    12.011   43.457994   -3.093614   12.957550
  32 C     4.0000    0    12.011   40.377136   -2.692954   13.767864
  33 C     4.0000    0    12.011   38.934972    0.085246   14.366567
  34 H     1.0000    0     1.008   40.015499    1.721238   13.431153
  35 H     1.0000    0     1.008   36.893709    0.021486   13.607143
  36 H     1.0000    0     1.008   39.240409   -3.543690   12.093397
  37 H     1.0000    0     1.008   40.058150   -3.984677   15.503691
  38 H     1.0000    0     1.008   44.325303   -4.053708   14.756512
  39 H     1.0000    0     1.008   43.339830   -4.677261   11.406916
  40 C     4.0000    0    12.011   38.956685    0.308403   17.437580
  41 C     4.0000    0    12.011   37.611994    2.845984   18.738902
  42 C     4.0000    0    12.011   36.172854    4.879556   16.775363
  43 H     1.0000    0     1.008   35.149095    3.761027   15.197140
  44 H     1.0000    0     1.008   37.672125    6.197489   15.879898
  45 H     1.0000    0     1.008   34.696865    6.085901   17.837182
  46 H     1.0000    0     1.008   36.273425    2.118496   20.273058
  47 H     1.0000    0     1.008   39.263445    3.821914   19.701037
  48 H     1.0000    0     1.008   37.894395   -1.430466   18.262446
  49 H     1.0000    0     1.008   41.028392    0.208720   18.142920
  50 H     1.0000    0     1.008  -37.695709    8.745936  -12.146895
  51 H     1.0000    0     1.008  -34.061822    1.576976   -8.716192
  52 H     1.0000    0     1.008   50.801224   -0.345820    8.456562
  53 H     1.0000    0     1.008   44.340062    2.656804   13.516871

--------------------------------
INTERNAL COORDINATES (ANGSTROEM)
--------------------------------
 C      0   0   0     0.000000000000     0.00000000     0.00000000
 C      1   0   0     1.395669743564     0.00000000     0.00000000
 C      2   1   0     1.429774884938   114.10175245     0.00000000
 C      3   2   1     1.398334560325   113.69268502     0.00000000
 S      1   2   3     1.658036965481   105.47964402     0.00000000
 H      2   1   3     1.142797401336   124.56646390   184.86494295
 C      3   2   1     1.622651045296   121.14833201   179.65920140
 C      7   3   2     1.731434109575   120.55488500   303.40782201
 C      8   7   3     1.730096268882   141.93477019    89.23726261
 H      9   8   7     1.165670889102   102.64925428   143.58510026
 H      9   8   7     1.165575885947   102.45506983   254.47741361
 H      8   7   3     1.164083230530   100.37359570   211.94958845
 H      8   7   3     1.160232272392   101.18203065   323.13189408
 H      7   3   2     1.161155882257   111.28004199   178.76883252
 H      7   3   2     1.170667349891   107.97622707    61.97677603
 C      9   8   7     1.634165035301   132.08497684    18.70203916
 C     16   9   8     1.700429586252   115.74042492    96.92503128
 C     17  16   9     1.689913991125   116.14546022    86.19625588
 H     18  17  16     1.157752360524   109.04000437   265.25818816
 H     18  17  16     1.157601389469   109.33368441   145.64772042
 H     18  17  16     1.156187968541   109.81489050    25.35612351
 H     17  16   9     1.153095382395   107.28270002   206.17648434
 H     17  16   9     1.150744210022   108.18878565   324.33278801
 H     16   9   8     1.157796612363   109.05082399   217.30041918
 H     16   9   8     1.155294941173   109.14944936   335.90514405
 C      5   1   2    45.805732226656   146.65153249   105.92910271
 C     26   5   1     1.395670723452    59.66687489   216.85234136
 C     27  26   5     1.429777005165   114.10153525   301.35013505
 C     28  27  26     1.398327942401   113.69279795     0.00000000
 S     26   5   1     1.658038169072    72.66502114    96.41565058
 H     27  26   5     1.171817190734   129.61413389   161.43664928
 C     28  27  26     1.615475580564   116.82398114   179.39200983
 C     32  28  27     1.699048328565   129.70538708   207.15044179
 C     33  32  28     1.686463318190   126.18611244   344.92745373
 H     34  33  32     1.149546535378   110.51996113    22.38378301
 H     34  33  32     1.153017051305   109.44811081   143.36996214
 H     33  32  28     1.161750775812   104.83197144   105.59266024
 H     33  32  28     1.157361877763   105.45915556   218.93693763
 H     32  28  27     1.172610816128   106.72089601    83.47555120
 H     32  28  27     1.174530968259   106.96610676   330.14210215
 C     34  33  32     1.629435417652   104.32067286   262.06582351
 C     41  34  33     1.668457306076   117.83715584   181.12117577
 C     42  41  34     1.678586778096   116.99909384     3.88637400
 H     43  42  41     1.158158408034   109.32679927    38.31543316
 H     43  42  41     1.157752037528   109.18610369   278.58101253
 H     43  42  41     1.154682360045   111.10605535   158.01866148
 H     42  41  34     1.144129206908   106.62472511   130.06129138
 H     42  41  34     1.135628681084   102.87644350   243.73558737
 H     41  34  33     1.163291218268   108.27018587   301.29507281
 H     41  34  33     1.159297983695   108.93395976    57.87461962
 H      1   2   3     1.059999270047   127.26030209   179.99987368
 H      4   3   2     1.059996672306   127.20565444   179.99982051
 H     26   5   1     1.059999833019   131.54018480   331.60838241
 H     29  28  27     1.060008075677   127.20620297   180.00072166

---------------------------
INTERNAL COORDINATES (A.U.)
---------------------------
 C      0   0   0     0.000000000000     0.00000000     0.00000000
 C      1   0   0     2.637433588736     0.00000000     0.00000000
 C      2   1   0     2.701882965692   114.10175245     0.00000000
 C      3   2   1     2.642469362612   113.69268502     0.00000000
 S      1   2   3     3.133235784676   105.47964402     0.00000000
 H      2   1   3     2.159574115082   124.56646390   184.86494295
 C      3   2   1     3.066366086530   121.14833201   179.65920140
 C      7   3   2     3.271936286027   120.55488500   303.40782201
 C      8   7   3     3.269408133506   141.93477019    89.23726261
 H      9   8   7     2.202798742687   102.64925428   143.58510026
 H      9   8   7     2.202619212742   102.45506983   254.47741361
 H      8   7   3     2.199798502791   100.37359570   211.94958845
 H      8   7   3     2.192521246558   101.18203065   323.13189408
 H      7   3   2     2.194266616257   111.28004199   178.76883252
 H      7   3   2     2.212240685217   107.97622707    61.97677603
 C      9   8   7     3.088124374348   132.08497684    18.70203916
 C     16   9   8     3.213346228033   115.74042492    96.92503128
 C     17  16   9     3.193474633108   116.14546022    86.19625588
 H     18  17  16     2.187834892292   109.04000437   265.25818816
 H     18  17  16     2.187549598343   109.33368441   145.64772042
 H     18  17  16     2.184878619878   109.81489050    25.35612351
 H     17  16   9     2.179034479015   107.28270002   206.17648434
 H     17  16   9     2.174591407138   108.18878565   324.33278801
 H     16   9   8     2.187918516148   109.05082399   217.30041918
 H     16   9   8     2.183191042722   109.14944936   335.90514405
 C      5   1   2    86.560289272110   146.65153249   105.92910271
 C     26   5   1     2.637435440455    59.66687489   216.85234136
 C     27  26   5     2.701886972341   114.10153525   301.35013505
 C     28  27  26     2.642456856548   113.69279795     0.00000000
 S     26   5   1     3.133238059135    72.66502114    96.41565058
 H     27  26   5     2.214413569508   129.61413389   161.43664928
 C     28  27  26     3.052806423304   116.82398114   179.39200983
 C     32  28  27     3.210736029285   129.70538708   207.15044179
 C     33  32  28     3.186953806283   126.18611244   344.92745373
 H     34  33  32     2.172328130063   110.51996113    22.38378301
 H     34  33  32     2.178886454708   109.44811081   143.36996214
 H     33  32  28     2.195390802155   104.83197144   105.59266024
 H     33  32  28     2.187096986814   105.45915556   218.93693763
 H     32  28  27     2.215913304156   106.72089601    83.47555120
 H     32  28  27     2.219541865819   106.96610676   330.14210215
 C     34  33  32     3.079186692275   104.32067286   262.06582351
 C     41  34  33     3.152927374625   117.83715584   181.12117577
 C     42  41  34     3.172069302623   116.99909384     3.88637400
 H     43  42  41     2.188602210883   109.32679927    38.31543316
 H     43  42  41     2.187834281917   109.18610369   278.58101253
 H     43  42  41     2.182033432156   111.10605535   158.01866148
 H     42  41  34     2.162090862877   106.62472511   130.06129138
 H     42  41  34     2.146027197074   102.87644350   243.73558737
 H     41  34  33     2.198301816523   108.27018587   301.29507281
 H     41  34  33     2.190755696791   108.93395976    57.87461962
 H      1   2   3     2.003108322545   127.26030209   179.99987368
 H      4   3   2     2.003103413526   127.20565444   179.99982051
 H     26   5   1     2.003109386408   131.54018480   331.60838241
 H     29  28  27     2.003124962774   127.20620297   180.00072166

----------------------------
SLATER BASIS SET DIM= 120
----------------------------
  0 C     2 shells
 l=0 nsto= 1
    2       1.625000000000        1.000000000000
 l=1 nsto= 1
    2       1.625000000000        1.000000000000
  1 C     2 shells
 l=0 nsto= 1
    2       1.625000000000        1.000000000000
 l=1 nsto= 1
    2       1.625000000000        1.000000000000
  2 C     2 shells
 l=0 nsto= 1
    2       1.625000000000        1.000000000000
 l=1 nsto= 1
    2       1.625000000000        1.000000000000
  3 C     2 shells
 l=0 nsto= 1
    2       1.625000000000        1.000000000000
 l=1 nsto= 1
    2       1.625000000000        1.000000000000
  4 S     2 shells
 l=0 nsto= 1
    3       1.925000000000        1.000000000000
 l=1 nsto= 1
    3       1.925000000000        1.000000000000
  5 H     1 shells
 l=0 nsto= 1
    1       1.200000000000        1.000000000000
  6 C     2 shells
 l=0 nsto= 1
    2       1.625000000000        1.000000000000
 l=1 nsto= 1
    2       1.625000000000        1.000000000000
  7 C     2 shells
 l=0 nsto= 1
    2       1.625000000000        1.000000000000
 l=1 nsto= 1
    2       1.625000000000        1.000000000000
  8 C     2 shells
 l=0 nsto= 1
    2       1.625000000000        1.000000000000
 l=1 nsto= 1
    2       1.625000000000        1.000000000000
  9 H     1 shells
 l=0 nsto= 1
    1       1.200000000000        1.000000000000
 10 H     1 shells
 l=0 nsto= 1
    1       1.200000000000        1.000000000000
 11 H     1 shells
 l=0 nsto= 1
    1       1.200000000000        1.000000000000
 12 H     1 shells
 l=0 nsto= 1
    1       1.200000000000        1.000000000000
 13 H     1 shells
 l=0 nsto= 1
    1       1.200000000000        1.000000000000
 14 H     1 shells
 l=0 nsto= 1
    1       1.200000000000        1.000000000000
 15 C     2 shells
 l=0 nsto= 1
    2       1.625000000000        1.000000000000
 l=1 nsto= 1
    2       1.625000000000        1.000000000000
 16 C     2 shells
 l=0 nsto= 1
    2       1.625000000000        1.000000000000
 l=1 nsto= 1
    2       1.625000000000        1.000000000000
 17 C     2 shells
 l=0 nsto= 1
    2       1.625000000000        1.000000000000
 l=1 nsto= 1
    2       1.625000000000        1.000000000000
 18 H     1 shells
 l=0 nsto= 1
    1       1.200000000000        1.000000000000
 19 H     1 shells
 l=0 nsto= 1
    1       1.200000000000        1.000000000000
 20 H     1 shells
 l=0 nsto= 1
    1       1.200000000000        1.000000000000
 21 H     1 shells
 l=0 nsto= 1
    1       1.200000000000        1.000000000000
 22 H     1 shells
 l=0 nsto= 1
    1       1.200000000000        1.000000000000
 23 H     1 shells
 l=0 nsto= 1
    1       1.200000000000        1.000000000000
 24 H     1 shells
 l=0 nsto= 1
    1       1.200000000000        1.000000000000
 25 C     2 shells
 l=0 nsto= 1
    2       1.625000000000        1.000000000000
 l=1 nsto= 1
    2       1.625000000000        1.000000000000
 26 C     2 shells
 l=0 nsto= 1
    2       1.625000000000        1.000000000000
 l=1 nsto= 1
    2       1.625000000000        1.000000000000
 27 C     2 shells
 l=0 nsto= 1
    2       1.625000000000        1.000000000000
 l=1 nsto= 1
    2       1.625000000000        1.000000000000
 28 C     2 shells
 l=0 nsto= 1
    2       1.625000000000        1.000000000000
 l=1 nsto= 1
    2       1.625000000000        1.000000000000
 29 S     2 shells
 l=0 nsto= 1
    3       1.925000000000        1.000000000000
 l=1 nsto= 1
    3       1.925000000000        1.000000000000
 30 H     1 shells
 l=0 nsto= 1
    1       1.200000000000        1.000000000000
 31 C     2 shells
 l=0 nsto= 1
    2       1.625000000000        1.000000000000
 l=1 nsto= 1
    2       1.625000000000        1.000000000000
 32 C     2 shells
 l=0 nsto= 1
    2       1.625000000000        1.000000000000
 l=1 nsto= 1
    2       1.625000000000        1.000000000000
 33 C     2 shells
 l=0 nsto= 1
    2       1.625000000000        1.000000000000
 l=1 nsto= 1
    2       1.625000000000        1.000000000000
 34 H     1 shells
 l=0 nsto= 1
    1       1.200000000000        1.000000000000
 35 H     1 shells
 l=0 nsto= 1
    1       1.200000000000        1.000000000000
 36 H     1 shells
 l=0 nsto= 1
    1       1.200000000000        1.000000000000
 37 H     1 shells
 l=0 nsto= 1
    1       1.200000000000        1.000000000000
 38 H     1 shells
 l=0 nsto= 1
    1       1.200000000000        1.000000000000
 39 H     1 shells
 l=0 nsto= 1
    1       1.200000000000        1.000000000000
 40 C     2 shells
 l=0 nsto= 1
    2       1.625000000000        1.000000000000
 l=1 nsto= 1
    2       1.625000000000        1.000000000000
 41 C     2 shells
 l=0 nsto= 1
    2       1.625000000000        1.000000000000
 l=1 nsto= 1
    2       1.625000000000        1.000000000000
 42 C     2 shells
 l=0 nsto= 1
    2       1.625000000000        1.000000000000
 l=1 nsto= 1
    2       1.625000000000        1.000000000000
 43 H     1 shells
 l=0 nsto= 1
    1       1.200000000000        1.000000000000
 44 H     1 shells
 l=0 nsto= 1
    1       1.200000000000        1.000000000000
 45 H     1 shells
 l=0 nsto= 1
    1       1.200000000000        1.000000000000
 46 H     1 shells
 l=0 nsto= 1
    1       1.200000000000        1.000000000000
 47 H     1 shells
 l=0 nsto= 1
    1       1.200000000000        1.000000000000
 48 H     1 shells
 l=0 nsto= 1
    1       1.200000000000        1.000000000000
 49 H     1 shells
 l=0 nsto= 1
    1       1.200000000000        1.000000000000
 50 H     1 shells
 l=0 nsto= 1
    1       1.200000000000        1.000000000000
 51 H     1 shells
 l=0 nsto= 1
    1       1.200000000000        1.000000000000
 52 H     1 shells
 l=0 nsto= 1
    1       1.200000000000        1.000000000000
 53 H     1 shells
 l=0 nsto= 1
    1       1.200000000000        1.000000000000
------------------------------------------------------------------------------
                           ORCA NDO INTEGRAL CALCULATION
------------------------------------------------------------------------------

--------------
NDO PARAMETERS
--------------

Gamma integral treatment              ... Mataga-Nishimoto
Nuclear repulsuion treatment          ... Direct (ZA*ZB/RAB)
Interaction factors:
s-s (sigma) =    1.0000
s-p (sigma) =    1.0000
s-d (sigma) =    1.0000
p-p (sigma) =    1.2670  p-p(pi) =    0.5850
p-d (sigma) =    1.0000  p-d(pi) =    1.0000
d-d (sigma) =    1.0000  d-d(pi) =    1.0000 d-d (delta) =    1.0000

fGamma parameter for Mataga-Nishimoto gamma integrals:    1.2000

--------------------------
Parameters for Element H :
--------------------------
 One-electron parameters (in eV)
  U(s)  =   -13.060000 Beta(s) =    12.000000 Neff(s) =     1.000000
 One-center electron repulsion parameters (in eV)
  G(s,s)=    12.850000
--------------------------
Parameters for Element C :
--------------------------
 One-electron parameters (in eV)
  U(s)  =   -50.870766 Beta(s) =    17.000000 Neff(s) =     2.000000
  U(p)  =   -41.599980 Beta(p) =    17.000000 Neff(p) =     2.000000 
 One-center electron repulsion parameters (in eV)
  G(s,s)=    11.110000
  G(s,p)=    11.110000 G(p,p)  =    11.110000
 Slater-Condon parameters (in eV)
 F2(p,p)=     4.5098 G1(s,p)=    6.8977
--------------------------
Parameters for Element S :
--------------------------
 One-electron parameters (in eV)
  U(s)  =   -69.509597 Beta(s) =    15.000000 Neff(s) =     2.000000
  U(p)  =   -60.725746 Beta(p) =    15.000000 Neff(p) =     4.000000 
 One-center electron repulsion parameters (in eV)
  G(s,s)=    10.090000
  G(s,p)=    10.090000 G(p,p)  =    10.090000
 Slater-Condon parameters (in eV)
 F2(p,p)=     4.5377 G1(s,p)=    3.0756

 Number of atoms                    ....   54
 Number of basis functions          ....  120

 Overlap integrals                  .... done
 One electron matrix                .... done
 Nuclear repulsion                  .... done
 Integral list                      .... done
 Electron-electron repulsion        .... done
-------------------------------------------------------------------------------
                                 ORCA SCF
-------------------------------------------------------------------------------

------------
SCF SETTINGS
------------
Hamiltonian:
 ZDO-Hamiltonian        Method          .... INDO


General Settings:
 Integral files         IntName         .... /home/mattyjones/Software/morphct/tests/output_EZ/donor_polymer/chromophores/input_orca/pair/00004-00023
 Hartree-Fock type      HFTyp           .... RHF
 Total Charge           Charge          ....    0
 Multiplicity           Mult            ....    1
 Number of Electrons    NEL             ....  124
 Basis Dimension        Dim             ....  120
 Nuclear Repulsion      ENuc            ....    633.5999356911 Eh

Convergence Acceleration:
 DIIS                   CNVDIIS         .... on
   Start iteration      DIISMaxIt       ....    12
   Startup error        DIISStart       ....  0.200000
   # of expansion vecs  DIISMaxEq       ....     5
   Bias factor          DIISBfac        ....   1.050
   Max. coefficient     DIISMaxC        ....  10.000
 Newton-Raphson         CNVNR           .... off
 SOSCF                  CNVSOSCF        .... on
   Start iteration      SOSCFMaxIt      ....   150
   Startup grad/error   SOSCFStart      ....  0.003300
 Level Shifting         CNVShift        .... on
   Level shift para.    LevelShift      ....    0.2500
   Turn off err/grad.   ShiftErr        ....    0.0010
 Zerner damping         CNVZerner       .... off
 Static damping         CNVDamp         .... on
   Fraction old density DampFac         ....    0.7000
   Max. Damping (<1)    DampMax         ....    0.9800
   Min. Damping (>=0)   DampMin         ....    0.0000
   Turn off err/grad.   DampErr         ....    0.1000
 Fernandez-Rico         CNVRico         .... off

SCF Procedure:
 Maximum # iterations   MaxIter         ....   125
 SCF integral mode      SCFMode         .... Conventional
 Integral Buffer length BufferLength    .... 1048576
 Integral index format  IndFormat       ....     0
 Integral value format  ValFormat       ....     0
 Integral Storage       Thresh          ....  1.000e-08 Eh

Convergence Tolerance:
 Convergence Check Mode ConvCheckMode   .... Total+1el-Energy
 Convergence forced     ConvForced      .... 0
 Energy Change          TolE            ....  1.000e-06 Eh
 1-El. energy change                    ....  1.000e-03 Eh
 Orbital Gradient       TolG            ....  5.000e-05
 Orbital Rotation angle TolX            ....  5.000e-05
 DIIS Error             TolErr          ....  1.000e-06


Diagonalization of the overlap matrix:
Smallest eigenvalue                        ... 1.689e-01
Time for diagonalization                   ...    0.004 sec
Threshold for overlap eigenvalues          ... 1.000e-08
Number of eigenvalues below threshold      ... 0
Time for construction of square roots      ...    0.001 sec
Total time needed                          ...    0.005 sec

-------------------------------
INITIAL GUESS: EXTENDED HUECKEL
-------------------------------
EHT matrix was read from disk
EHT matrix was diagonalized
Initial density was built
                      ------------------
                      INITIAL GUESS DONE
                      ------------------

 InCore treatment chosen:
   Memory dedicated               ...    1024 MB
   Memory needed                  ...      0 MB
   Number of tiny    integrals    ...       0
   Number of small   integrals    ...       0
   Number of regular integrals    ...    7392

--------------
SCF ITERATIONS
--------------
ITER       Energy         Delta-E        Max-DP      RMS-DP      [F,P]     Damp
  0    -20.5976049350   0.000000000000 0.04382600  0.00147123  0.1175786 0.7000
  1    -20.6406867974  -0.043081862397 0.04149003  0.00138801  0.0803332 0.7000
                               ***Turning on DIIS***
  2    -20.6725356616  -0.031848864226 0.10543121  0.00356418  0.0487133 0.0000
  3    -20.7581307325  -0.085595070857 0.02190318  0.00073789  0.0221390 0.0000
  4    -20.7394617716   0.018668960836 0.01205637  0.00051285  0.0068938 0.0000
  5    -20.7575081906  -0.018046419022 0.00834235  0.00034652  0.0040508 0.0000
  6    -20.7592336655  -0.001725474878 0.00627613  0.00024632  0.0022470 0.0000
                      *** Initiating the SOSCF procedure ***
                           *** Shutting down DIIS ***
                      *** Re-Reading the Fockian *** 
                      *** Removing any level shift *** 
ITER      Energy       Delta-E        Grad      Rot      Max-DP    RMS-DP
  7    -20.75573167   0.0035019937  0.003156  0.003156  0.003847  0.000141
  8    -20.75415367   0.0015779968  0.000924  0.002620  0.001941  0.000067
  9    -20.75417052  -0.0000168434  0.000401  0.002584  0.002338  0.000074
 10    -20.75417694  -0.0000064236  0.000042  0.000094  0.000136  0.000005
                 **** Energy Check signals convergence ****
              ***Rediagonalizing the Fockian in SOSCF/NRSCF***

               *****************************************************
               *                     SUCCESS                       *
               *           SCF CONVERGED AFTER  11 CYCLES          *
               *****************************************************


----------------
TOTAL SCF ENERGY
----------------

Total Energy       :          -20.75417701 Eh            -564.74987 eV

Components:
Nuclear Repulsion  :          633.59993569 Eh           17241.13077 eV
Electronic Energy  :         -654.35411270 Eh          -17805.88064 eV
One Electron Energy:        -1218.40463523 Eh          -33154.47567 eV
Two Electron Energy:          564.05052253 Eh           15348.59503 eV


---------------
SCF CONVERGENCE
---------------

  Last Energy change         ...   -6.8619e-08  Tolerance :   1.0000e-06
  Last MAX-Density change    ...    7.1240e-05  Tolerance :   1.0000e-05
  Last RMS-Density change    ...    1.8274e-06  Tolerance :   1.0000e-06
  Last Orbital Gradient      ...    2.3514e-05  Tolerance :   5.0000e-05
  Last Orbital Rotation      ...    4.1914e-05  Tolerance :   5.0000e-05

             **** THE GBW FILE WAS UPDATED (/home/mattyjones/Software/morphct/tests/output_EZ/donor_polymer/chromophores/input_orca/pair/00004-00023.gbw) ****
             **** DENSITY FILE WAS UPDATED (/home/mattyjones/Software/morphct/tests/output_EZ/donor_polymer/chromophores/input_orca/pair/00004-00023.scfp.tmp) ****
             **** ENERGY FILE WAS UPDATED (/home/mattyjones/Software/morphct/tests/output_EZ/donor_polymer/chromophores/input_orca/pair/00004-00023.en.tmp) ****
----------------
ORBITAL ENERGIES
----------------

  NO   OCC          E(Eh)            E(eV) 
   0   2.0000      -1.560959       -42.4758 
   1   2.0000      -1.555405       -42.3247 
   2   2.0000      -1.416918       -38.5563 
   3   2.0000      -1.380316       -37.5603 
   4   2.0000      -1.288656       -35.0661 
   5   2.0000      -1.282348       -34.8945 
   6   2.0000      -1.183247       -32.1978 
   7   2.0000      -1.177247       -32.0345 
   8   2.0000      -1.113034       -30.2872 
   9   2.0000      -1.109850       -30.2006 
  10   2.0000      -1.062345       -28.9079 
  11   2.0000      -1.055580       -28.7238 
  12   2.0000      -0.995698       -27.0943 
  13   2.0000      -0.973569       -26.4922 
  14   2.0000      -0.908486       -24.7212 
  15   2.0000      -0.878834       -23.9143 
  16   2.0000      -0.847512       -23.0620 
  17   2.0000      -0.844492       -22.9798 
  18   2.0000      -0.820154       -22.3175 
  19   2.0000      -0.817835       -22.2544 
  20   2.0000      -0.777391       -21.1539 
  21   2.0000      -0.768889       -20.9225 
  22   2.0000      -0.732938       -19.9443 
  23   2.0000      -0.722905       -19.6712 
  24   2.0000      -0.708231       -19.2720 
  25   2.0000      -0.681614       -18.5477 
  26   2.0000      -0.675866       -18.3913 
  27   2.0000      -0.674999       -18.3677 
  28   2.0000      -0.651683       -17.7332 
  29   2.0000      -0.641747       -17.4628 
  30   2.0000      -0.611521       -16.6403 
  31   2.0000      -0.604176       -16.4405 
  32   2.0000      -0.599420       -16.3110 
  33   2.0000      -0.593009       -16.1366 
  34   2.0000      -0.580529       -15.7970 
  35   2.0000      -0.575082       -15.6488 
  36   2.0000      -0.574466       -15.6320 
  37   2.0000      -0.564107       -15.3501 
  38   2.0000      -0.547265       -14.8918 
  39   2.0000      -0.544589       -14.8190 
  40   2.0000      -0.539723       -14.6866 
  41   2.0000      -0.530476       -14.4350 
  42   2.0000      -0.520681       -14.1685 
  43   2.0000      -0.515888       -14.0380 
  44   2.0000      -0.509038       -13.8516 
  45   2.0000      -0.505176       -13.7465 
  46   2.0000      -0.499709       -13.5978 
  47   2.0000      -0.497838       -13.5469 
  48   2.0000      -0.493858       -13.4386 
  49   2.0000      -0.484420       -13.1817 
  50   2.0000      -0.473637       -12.8883 
  51   2.0000      -0.472494       -12.8572 
  52   2.0000      -0.461786       -12.5658 
  53   2.0000      -0.455907       -12.4059 
  54   2.0000      -0.451718       -12.2919 
  55   2.0000      -0.447807       -12.1854 
  56   2.0000      -0.436523       -11.8784 
  57   2.0000      -0.435502       -11.8506 
  58   2.0000      -0.356510        -9.7011 
  59   2.0000      -0.349321        -9.5055 
  60   2.0000      -0.305700        -8.3185 
  61   2.0000      -0.305192        -8.3047 
  62   0.0000       0.003304         0.0899 
  63   0.0000       0.007078         0.1926 
  64   0.0000       0.049650         1.3510 
  65   0.0000       0.062042         1.6883 
  66   0.0000       0.071793         1.9536 
  67   0.0000       0.073848         2.0095 
  68   0.0000       0.083047         2.2598 
  69   0.0000       0.092327         2.5124 
  70   0.0000       0.099208         2.6996 
  71   0.0000       0.104856         2.8533 
  72   0.0000       0.105424         2.8687 
  73   0.0000       0.106404         2.8954 
  74   0.0000       0.122757         3.3404 
  75   0.0000       0.124279         3.3818 
  76   0.0000       0.142806         3.8860 
  77   0.0000       0.144689         3.9372 
  78   0.0000       0.158910         4.3242 
  79   0.0000       0.159496         4.3401 
  80   0.0000       0.166027         4.5178 
  81   0.0000       0.170441         4.6379 
  82   0.0000       0.173599         4.7239 
  83   0.0000       0.175751         4.7824 
  84   0.0000       0.200663         5.4603 
  85   0.0000       0.203282         5.5316 
  86   0.0000       0.221595         6.0299 
  87   0.0000       0.230863         6.2821 
  88   0.0000       0.231525         6.3001 
  89   0.0000       0.232365         6.3230 
  90   0.0000       0.234402         6.3784 
  91   0.0000       0.234763         6.3882 
  92   0.0000       0.236214         6.4277 
  93   0.0000       0.237575         6.4648 
  94   0.0000       0.238441         6.4883 
  95   0.0000       0.238457         6.4887 
  96   0.0000       0.241502         6.5716 
  97   0.0000       0.242175         6.5899 
  98   0.0000       0.242459         6.5977 
  99   0.0000       0.243910         6.6371 
 100   0.0000       0.246124         6.6974 
 101   0.0000       0.247509         6.7351 
 102   0.0000       0.252360         6.8671 
 103   0.0000       0.261168         7.1068 
 104   0.0000       0.265832         7.2337 
 105   0.0000       0.266165         7.2427 
 106   0.0000       0.271368         7.3843 
 107   0.0000       0.293370         7.9830 
 108   0.0000       0.301251         8.1974 
 109   0.0000       0.306884         8.3507 
 110   0.0000       0.309549         8.4233 
 111   0.0000       0.310277         8.4431 
 112   0.0000       0.337987         9.1971 
 113   0.0000       0.340985         9.2787 
 114   0.0000       0.352985         9.6052 
 115   0.0000       0.367087         9.9889 
 116   0.0000       0.413613        11.2550 
 117   0.0000       0.416937        11.3454 
 118   0.0000       0.428370        11.6565 
 119   0.0000       0.433242        11.7891 
-------
TIMINGS
-------

Total SCF time: 0 days 0 hours 0 min 0 sec 

Total time                  ....       0.130 sec
Sum of individual times     ....       0.103 sec  ( 79.2%)

Fock matrix formation       ....       0.056 sec  ( 42.7%)
Diagonalization             ....       0.027 sec  ( 20.6%)
Density matrix formation    ....       0.003 sec  (  2.3%)
Population analysis         ....       0.000 sec  (  0.0%)
Initial guess               ....       0.004 sec  (  2.7%)
Orbital Transformation      ....       0.000 sec  (  0.0%)
Orbital Orthonormalization  ....       0.000 sec  (  0.0%)
DIIS solution               ....       0.005 sec  (  4.1%)
SOSCF solution              ....       0.009 sec  (  6.8%)

-------------------------   --------------------
FINAL SINGLE POINT ENERGY       -20.754177010663
-------------------------   --------------------


                            ***************************************
                            *     ORCA property calculations      *
                            ***************************************

                                    ---------------------
                                    Active property flags
                                    ---------------------
   (+) Dipole Moment


------------------------------------------------------------------------------
                       ORCA ELECTRIC PROPERTIES CALCULATION
------------------------------------------------------------------------------

Dipole Moment Calculation                       ... on
Quadrupole Moment Calculation                   ... off
Polarizability Calculation                      ... off
GBWName                                         ... /home/mattyjones/Software/morphct/tests/output_EZ/donor_polymer/chromophores/input_orca/pair/00004-00023.gbw
Electron density file                           ... /home/mattyjones/Software/morphct/tests/output_EZ/donor_polymer/chromophores/input_orca/pair/00004-00023.scfp.tmp
The origin for moment calculation is the CENTER OF MASS  = ( 1.756597,  0.958745  0.110223)

-------------
DIPOLE MOMENT
-------------
                                X             Y             Z
Electronic contribution:    183.29170     113.38827      13.07346
Nuclear contribution   :   -102.14318     -60.72372      -8.19196
                        -----------------------------------------
Total Dipole Moment    :     81.14852      52.66455       4.88149
                        -----------------------------------------
Magnitude (a.u.)       :     96.86313
Magnitude (Debye)      :    246.20652


Timings for individual modules:

Sum of individual times         ...        0.168 sec (=   0.003 min)
STO integral calculation        ...        0.022 sec (=   0.000 min)  12.8 %
SCF iterations                  ...        0.147 sec (=   0.002 min)  87.2 %
                             ****ORCA TERMINATED NORMALLY****
TOTAL RUN TIME: 0 days 0 hours 0 minutes 0 seconds 438 msec

