
                                 *****************
                                 * O   R   C   A *
                                 *****************

           --- An Ab Initio, DFT and Semiempirical electronic structure package ---

                  #######################################################
                  #                        -***-                        #
                  #  Department of molecular theory and spectroscopy    #
                  #              Directorship: Frank Neese              #
                  # Max Planck Institute for Chemical Energy Conversion #
                  #                  D-45470 Muelheim/Ruhr              #
                  #                       Germany                       #
                  #                                                     #
                  #                  All rights reserved                #
                  #                        -***-                        #
                  #######################################################


                         Program Version 4.0.1.2 - RELEASE -


 With contributions from (in alphabetic order):
   Daniel Aravena         : Magnetic Properties
   Michael Atanasov       : Ab Initio Ligand Field Theory
   Ute Becker             : Parallelization
   Martin Brehm           : Molecular dynamics
   Dmytro Bykov           : SCF Hessian
   Vijay G. Chilkuri      : MRCI spin determinant printing
   Dipayan Datta          : RHF DLPNO-CCSD density
   Achintya Kumar Dutta   : EOM-CC, STEOM-CC
   Dmitry Ganyushin       : Spin-Orbit,Spin-Spin,Magnetic field MRCI
   Yang Guo               : DLPNO-NEVPT2, CIM, IAO-localization
   Andreas Hansen         : Spin unrestricted coupled pair/coupled cluster methods
   Lee Huntington         : MR-EOM, pCC
   Robert Izsak           : Overlap fitted RIJCOSX, COSX-SCS-MP3, EOM
   Christian Kollmar      : KDIIS, OOCD, Brueckner-CCSD(T), CCSD density
   Simone Kossmann        : Meta GGA functionals, TD-DFT gradient, OOMP2, MP2 Hessian
   Martin Krupicka        : AUTO-CI
   Dagmar Lenk            : GEPOL surface
   Dimitrios Liakos       : Extrapolation schemes; parallel MDCI
   Dimitrios Manganas     : ROCIS; embedding schemes
   Dimitrios Pantazis     : SARC Basis sets
   Taras Petrenko         : DFT Hessian,TD-DFT gradient, ASA, ECA, R-Raman, ABS, FL, XAS/XES, NRVS
   Peter Pinski           : DLPNO-MP2
   Christoph Reimann      : Effective Core Potentials
   Marius Retegan         : Local ZFS, SOC
   Christoph Riplinger    : Optimizer, TS searches, QM/MM, DLPNO-CCSD(T), (RO)-DLPNO pert. Triples
   Tobias Risthaus        : Range-separated hybrids, TD-DFT gradient, RPA, STAB
   Michael Roemelt        : Restricted open shell CIS
   Masaaki Saitow         : Open-shell DLPNO
   Barbara Sandhoefer     : DKH picture change effects
   Kantharuban Sivalingam : CASSCF convergence, NEVPT2, FIC-MRCI
   Georgi Stoychev        : AutoAux
   Boris Wezisla          : Elementary symmetry handling
   Frank Wennmohs         : Technical directorship


 We gratefully acknowledge several colleagues who have allowed us to
 interface, adapt or use parts of their codes:
   Stefan Grimme, W. Hujo, H. Kruse,             : VdW corrections, initial TS optimization,
                  C. Bannwarth                     DFT functionals, gCP, sTDA/sTD-DF
   Ed Valeev                                     : LibInt (2-el integral package), F12 methods
   Garnet Chan, S. Sharma, J. Yang, R. Olivares  : DMRG
   Ulf Ekstrom                                   : XCFun DFT Library
   Mihaly Kallay                                 : mrcc  (arbitrary order and MRCC methods)
   Andreas Klamt, Michael Diedenhofen            : otool_cosmo (COSMO solvation model)
   Jiri Pittner, Ondrej Demel                    : Mk-CCSD
   Frank Weinhold                                : gennbo (NPA and NBO analysis)
   Christopher J. Cramer and Donald G. Truhlar   : smd solvation model


 Your calculation uses the libint2 library for the computation of 2-el integrals
 For citations please refer to: http://libint.valeyev.net

 This ORCA versions uses:
   CBLAS   interface :  Fast vector & matrix operations
   LAPACKE interface :  Fast linear algebra routines
   SCALAPACK package :  Parallel linear algebra routines


leaving
Your calculation utilizes the basis: def2-SVP
   F. Weigend and R. Ahlrichs, Phys. Chem. Chem. Phys. 7, 3297 (2005).

================================================================================
                                        WARNINGS
                       Please study these warnings very carefully!
================================================================================

Warning: TCutStore was < 0. Adjusted to Thresh (uncritical)

WARNING: Direct SCF is incompatible with Method<>HF and Method<>DFT
  ===> : conventional SCF is chosen

WARNING: The NDO methods need Guess=HUECKEL or Guess=HCORE or Guess=MOREAD
  ===> : Guess is set to Hueckel

WARNING: The NDO methods need %rel::SOCType==1
  ===> : %rel::SOCType is set to 1

WARNING: The NDO methods cannot have frozencore=1
  ===> : %method FrozenCore=0 end

INFO   : the flag for use of LIBINT has been found!

================================================================================
                                       INPUT FILE
================================================================================
NAME = /home/mattyjones/Software/morphct/tests/output_EZ/donor_polymer/chromophores/input_orca/pair/00008-00021.inp
|  1> # ================================================================
|  2> # Orca input file made by Matty Jones
|  3> # ================================================================
|  4> ! ZINDO/S 
|  5> ! NOPOP
|  6> ! NOMOPRINT
|  7> * xyz 0   1
|  8>  C  25.40401  1.92708  0.44818
|  9>  C  24.64427  0.85107  0.90959
| 10>  C  25.33867  -0.00674  1.81857
| 11>  C  26.65335  0.39393  2.07621
| 12>  S  26.88418  1.76912  1.17843
| 13>  H  23.57073  0.63382  0.58824
| 14>  C  24.66121  -1.30296  2.49681
| 15>  C  23.68981  -2.39866  1.62127
| 16>  C  22.02367  -2.05582  1.61928
| 17>  H  21.68131  -2.04689  2.72423
| 18>  H  21.89523  -0.99292  1.18495
| 19>  H  23.82629  -3.43921  2.09392
| 20>  H  24.05313  -2.40958  0.53052
| 21>  H  23.99555  -0.95060  3.39093
| 22>  H  25.50557  -1.98052  2.93671
| 23>  C  21.07911  -3.09005  0.78161
| 24>  C  20.58397  -4.49564  1.59128
| 25>  C  19.15529  -4.38470  2.47456
| 26>  H  18.54028  -3.47442  2.11355
| 27>  H  19.41037  -4.25987  3.59692
| 28>  H  18.53817  -5.35312  2.32529
| 29>  H  21.42867  -4.80681  2.31073
| 30>  H  20.43830  -5.31694  0.79411
| 31>  H  20.11676  -2.53377  0.45684
| 32>  H  21.64287  -3.42835  -0.17026
| 33>  C  -18.04522  2.49055  -3.66499
| 34>  C  -19.31250  1.96206  -3.41484
| 35>  C  -20.13349  2.78357  -2.58095
| 36>  C  -19.51134  3.96671  -2.17056
| 37>  S  -17.99947  3.93457  -2.85149
| 38>  H  -19.67480  0.96181  -3.82694
| 39>  C  -21.61363  2.21975  -2.23152
| 40>  C  -23.04423  3.13656  -2.15346
| 41>  C  -24.43002  2.18274  -1.87192
| 42>  H  -25.29321  2.69773  -2.44903
| 43>  H  -24.22769  1.15317  -2.36048
| 44>  H  -23.16984  3.72900  -3.12562
| 45>  H  -23.00812  3.82355  -1.24449
| 46>  H  -21.55891  1.69745  -1.18153
| 47>  H  -21.86979  1.38602  -3.01243
| 48>  C  -24.90782  1.94464  -0.33388
| 49>  C  -26.24603  0.91310  -0.19610
| 50>  C  -25.81764  -0.70274  -0.00525
| 51>  H  -25.25997  -1.06666  -0.95148
| 52>  H  -26.77293  -1.33681  0.15166
| 53>  H  -25.12725  -0.80701  0.91779
| 54>  H  -26.88312  1.01027  -1.15075
| 55>  H  -26.86552  1.23802  0.71817
| 56>  H  -24.04194  1.48811  0.27940
| 57>  H  -25.20587  2.95781  0.13769
| 58>  H  25.09905  2.68538  -0.22678
| 59>  H  27.35543  -0.08171  2.71218
| 60>  H  -17.27449  2.05962  -4.25141
| 61>  H  -19.92039  4.72530  -1.55346
| 62> *
| 63> 
| 64>                          ****END OF INPUT****
================================================================================

                       ****************************
                       * Single Point Calculation *
                       ****************************

---------------------------------
CARTESIAN COORDINATES (ANGSTROEM)
---------------------------------
  C     25.404010    1.927080    0.448180
  C     24.644270    0.851070    0.909590
  C     25.338670   -0.006740    1.818570
  C     26.653350    0.393930    2.076210
  S     26.884180    1.769120    1.178430
  H     23.570730    0.633820    0.588240
  C     24.661210   -1.302960    2.496810
  C     23.689810   -2.398660    1.621270
  C     22.023670   -2.055820    1.619280
  H     21.681310   -2.046890    2.724230
  H     21.895230   -0.992920    1.184950
  H     23.826290   -3.439210    2.093920
  H     24.053130   -2.409580    0.530520
  H     23.995550   -0.950600    3.390930
  H     25.505570   -1.980520    2.936710
  C     21.079110   -3.090050    0.781610
  C     20.583970   -4.495640    1.591280
  C     19.155290   -4.384700    2.474560
  H     18.540280   -3.474420    2.113550
  H     19.410370   -4.259870    3.596920
  H     18.538170   -5.353120    2.325290
  H     21.428670   -4.806810    2.310730
  H     20.438300   -5.316940    0.794110
  H     20.116760   -2.533770    0.456840
  H     21.642870   -3.428350   -0.170260
  C    -18.045220    2.490550   -3.664990
  C    -19.312500    1.962060   -3.414840
  C    -20.133490    2.783570   -2.580950
  C    -19.511340    3.966710   -2.170560
  S    -17.999470    3.934570   -2.851490
  H    -19.674800    0.961810   -3.826940
  C    -21.613630    2.219750   -2.231520
  C    -23.044230    3.136560   -2.153460
  C    -24.430020    2.182740   -1.871920
  H    -25.293210    2.697730   -2.449030
  H    -24.227690    1.153170   -2.360480
  H    -23.169840    3.729000   -3.125620
  H    -23.008120    3.823550   -1.244490
  H    -21.558910    1.697450   -1.181530
  H    -21.869790    1.386020   -3.012430
  C    -24.907820    1.944640   -0.333880
  C    -26.246030    0.913100   -0.196100
  C    -25.817640   -0.702740   -0.005250
  H    -25.259970   -1.066660   -0.951480
  H    -26.772930   -1.336810    0.151660
  H    -25.127250   -0.807010    0.917790
  H    -26.883120    1.010270   -1.150750
  H    -26.865520    1.238020    0.718170
  H    -24.041940    1.488110    0.279400
  H    -25.205870    2.957810    0.137690
  H     25.099050    2.685380   -0.226780
  H     27.355430   -0.081710    2.712180
  H    -17.274490    2.059620   -4.251410
  H    -19.920390    4.725300   -1.553460

----------------------------
CARTESIAN COORDINATES (A.U.)
----------------------------
  NO LB      ZA    FRAG     MASS         X           Y           Z
   0 C     4.0000    0    12.011   48.006622    3.641653    0.846937
   1 C     4.0000    0    12.011   46.570921    1.608289    1.718876
   2 C     4.0000    0    12.011   47.883147   -0.012737    3.436599
   3 C     4.0000    0    12.011   50.367532    0.744420    3.923468
   4 S     6.0000    0    32.060   50.803738    3.343152    2.226910
   5 H     1.0000    0     1.008   44.542224    1.197746    1.111613
   6 C     4.0000    0    12.011   46.602933   -2.462238    4.718287
   7 C     4.0000    0    12.011   44.767253   -4.532810    3.063756
   8 C     4.0000    0    12.011   41.618705   -3.884937    3.059996
   9 H     1.0000    0     1.008   40.971738   -3.868062    5.148049
  10 H     1.0000    0     1.008   41.375988   -1.876347    2.239231
  11 H     1.0000    0     1.008   45.025163   -6.499165    3.956935
  12 H     1.0000    0     1.008   45.453828   -4.553446    1.002538
  13 H     1.0000    0     1.008   45.345018   -1.796374    6.407929
  14 H     1.0000    0     1.008   48.198542   -3.742640    5.549578
  15 C     4.0000    0    12.011   39.833745   -5.839348    1.477029
  16 C     4.0000    0    12.011   38.898066   -8.495528    3.007083
  17 C     4.0000    0    12.011   36.198252   -8.285882    4.676241
  18 H     1.0000    0     1.008   35.036052   -6.565702    3.994031
  19 H     1.0000    0     1.008   36.680283   -8.049988    6.797194
  20 H     1.0000    0     1.008   35.032064  -10.115931    4.394161
  21 H     1.0000    0     1.008   40.494318   -9.083554    4.366647
  22 H     1.0000    0     1.008   38.622790  -10.047560    1.500650
  23 H     1.0000    0     1.008   38.015167   -4.788131    0.863302
  24 H     1.0000    0     1.008   40.899097   -6.478643   -0.321745
  25 C     4.0000    0    12.011  -34.100524    4.706457   -6.925827
  26 C     4.0000    0    12.011  -36.495336    3.707756   -6.453112
  27 C     4.0000    0    12.011  -38.046782    5.260185   -4.877289
  28 C     4.0000    0    12.011  -36.871089    7.495996   -4.101764
  29 S     6.0000    0    32.060  -34.014069    7.435260   -5.388535
  30 H     1.0000    0     1.008  -37.179984    1.817557   -7.231869
  31 C     4.0000    0    12.011  -40.843841    4.194720   -4.216962
  32 C     4.0000    0    12.011  -43.547284    5.927239   -4.069450
  33 C     4.0000    0    12.011  -46.166047    4.124781   -3.537416
  34 H     1.0000    0     1.008  -47.797240    5.097971   -4.627996
  35 H     1.0000    0     1.008  -45.783699    2.179175   -4.460661
  36 H     1.0000    0     1.008  -43.784652    7.046789   -5.906566
  37 H     1.0000    0     1.008  -43.479046    7.225462   -2.351745
  38 H     1.0000    0     1.008  -40.740436    3.207716   -2.232768
  39 H     1.0000    0     1.008  -41.327914    2.619198   -5.692668
  40 C     4.0000    0    12.011  -47.068958    3.674837   -0.630942
  41 C     4.0000    0    12.011  -49.597809    1.725509   -0.370575
  42 C     4.0000    0    12.011  -48.788269   -1.327986   -0.009921
  43 H     1.0000    0     1.008  -47.734425   -2.015695   -1.798037
  44 H     1.0000    0     1.008  -50.593506   -2.526205    0.286596
  45 H     1.0000    0     1.008  -47.483621   -1.525028    1.734372
  46 H     1.0000    0     1.008  -50.801734    1.909134   -2.174602
  47 H     1.0000    0     1.008  -50.768475    2.339519    1.357145
  48 H     1.0000    0     1.008  -45.432682    2.812120    0.527989
  49 H     1.0000    0     1.008  -47.632191    5.589451    0.260196
  50 H     1.0000    0     1.008   47.430331    5.074633   -0.428552
  51 H     1.0000    0     1.008   51.694271   -0.154410    5.125277
  52 H     1.0000    0     1.008  -32.644055    3.892118   -8.034001
  53 H     1.0000    0     1.008  -37.644082    8.929523   -2.935614

--------------------------------
INTERNAL COORDINATES (ANGSTROEM)
--------------------------------
 C      0   0   0     0.000000000000     0.00000000     0.00000000
 C      1   0   0     1.395672445741     0.00000000     0.00000000
 C      2   1   0     1.429781100903   114.10110798     0.00000000
 C      3   2   1     1.398319820678   113.69355262     0.00000000
 S      1   2   3     1.658046939323   105.47994413     0.00000000
 H      2   1   3     1.141469016925   124.44542578   181.47318683
 C      3   2   1     1.612187283662   123.07575939   179.23668461
 C      7   3   2     1.706091070723   122.66473104    43.46124965
 C      8   7   3     1.701048419446   115.39452791   268.67458816
 H      9   8   7     1.156807943005   106.87695292   301.45718949
 H      9   8   7     1.155376904954   107.14195061    57.72094139
 H      8   7   3     1.150986149091   107.59908476   148.83204205
 H      8   7   3     1.149720066494   108.24237079    29.88388917
 H      7   3   2     1.169064317991   108.58367894   280.52337828
 H      7   3   2     1.168564663679   108.71885476   164.02435535
 C      9   8   7     1.632028282659   116.08896007   179.76263432
 C     16   9   8     1.695998931780   116.68791185    84.33918642
 C     17  16   9     1.683335315497   116.33775785    88.63026804
 H     18  17  16     1.156362918205   109.84370708    19.05822858
 H     18  17  16     1.157730670277   109.19588062   258.87853353
 H     18  17  16     1.157996512819   109.24123561   139.24252365
 H     17  16   9     1.152368500698   107.92918156   326.86350651
 H     17  16   9     1.153790902980   107.27491450   209.10765887
 H     16   9   8     1.158033036575   108.69314345   205.13700230
 H     16   9   8     1.156861583985   109.00144736   323.03327922
 C     19  18  17    37.516279158287   133.78078303   140.29136075
 C     26  19  18     1.395663032755   142.90831324    13.70925557
 C     27  26  19     1.429781728901   114.10129560   115.35572321
 C     28  27  26     1.398324295076   113.69339426     0.00000000
 S     26  19  18     1.658031686338    92.06271835   133.08164981
 H     27  26  19     1.140871492544   123.75224319   295.67606559
 C     28  27  26     1.621976799125   116.73814530   180.84612272
 C     32  28  27     1.700955701863   126.15936616   219.80443721
 C     33  32  28     1.705711373035   112.92220673   175.69959217
 H     34  33  32     1.159037371399   105.92712208   213.78244671
 H     34  33  32     1.157429344453   106.60214619   329.07148336
 H     33  32  28     1.145363737552   109.39517171    52.98100084
 H     33  32  28     1.139949846748   109.55899456   290.31581683
 H     32  28  27     1.173997686752   107.74577428    96.89471394
 H     32  28  27     1.170702390277   107.66956801   341.96833007
 C     34  33  32     1.628051440096   118.43408790    91.83322046
 C     41  34  33     1.695247505263   113.41830514   183.07422828
 C     42  41  34     1.682522100954   113.11667140    91.14410638
 H     43  42  41     1.157058688313   109.39080040   296.41153586
 H     43  42  41     1.157257316719   109.35354322   176.30362033
 H     43  42  41     1.157373503498   109.19993253    56.42302632
 H     42  41  34     1.151816955727   108.53775397   330.78764023
 H     42  41  34     1.151186561509   108.51774593   211.64879665
 H     41  34  33     1.155110459523   109.83912152   303.95126285
 H     41  34  33     1.156600845711   109.43241559    63.37799561
 H      1   2   3     1.059995515651   127.25999841   180.00023731
 H      4   3   2     1.060003574003   127.20659271   180.00039850
 H     26  19  18     1.060006516112    46.48960179   276.32104177
 H     29  28  27     1.059996745561   127.20635604   180.00018046

---------------------------
INTERNAL COORDINATES (A.U.)
---------------------------
 C      0   0   0     0.000000000000     0.00000000     0.00000000
 C      1   0   0     2.637438695110     0.00000000     0.00000000
 C      2   1   0     2.701894712164   114.10110798     0.00000000
 C      3   2   1     2.642441508715   113.69355262     0.00000000
 S      1   2   3     3.133254632508   105.47994413     0.00000000
 H      2   1   3     2.157063832345   124.44542578   181.47318683
 C      3   2   1     3.046592442711   123.07575939   179.23668461
 C      7   3   2     3.224044883195   122.66473104    43.46124965
 C      8   7   3     3.214515653293   115.39452791   268.67458816
 H      9   8   7     2.186050201825   106.87695292   301.45718949
 H      9   8   7     2.183345931820   107.14195061    57.72094139
 H      8   7   3     2.175048605719   107.59908476   148.83204205
 H      8   7   3     2.172656056348   108.24237079    29.88388917
 H      7   3   2     2.209211393943   108.58367894   280.52337828
 H      7   3   2     2.208267184132   108.71885476   164.02435535
 C      9   8   7     3.084086497040   116.08896007   179.76263432
 C     16   9   8     3.204973504488   116.68791185    84.33918642
 C     17  16   9     3.181042737848   116.33775785    88.63026804
 H     18  17  16     2.185209226830   109.84370708    19.05822858
 H     18  17  16     2.187793903665   109.19588062   258.87853353
 H     18  17  16     2.188296273263   109.24123561   139.24252365
 H     17  16   9     2.177660871676   107.92918156   326.86350651
 H     17  16   9     2.180348822442   107.27491450   209.10765887
 H     16   9   8     2.188365293161   108.69314345   205.13700230
 H     16   9   8     2.186151568586   109.00144736   323.03327922
 C     19  18  17    70.895493172900   133.78078303   140.29136075
 C     26  19  18     2.637420907146   142.90831324    13.70925557
 C     27  26  19     2.701895898908   114.10129560   115.35572321
 C     28  27  26     2.642449964102   113.69339426     0.00000000
 S     26  19  18     3.133225808542    92.06271835   133.08164981
 H     27  26  19     2.155934674906   123.75224319   295.67606559
 C     28  27  26     3.065091945921   116.73814530   180.84612272
 C     32  28  27     3.214340442453   126.15936616   219.80443721
 C     33  32  28     3.223327358550   112.92220673   175.69959217
 H     34  33  32     2.190263210924   105.92712208   213.78244671
 H     34  33  32     2.187224480379   106.60214619   329.07148336
 H     33  32  28     2.164423787698   109.39517171    52.98100084
 H     33  32  28     2.154193016759   109.55899456   290.31581683
 H     32  28  27     2.218534109819   107.74577428    96.89471394
 H     32  28  27     2.212306901950   107.66956801   341.96833007
 C     34  33  32     3.076571353718   118.43408790    91.83322046
 C     41  34  33     3.203553514160   113.41830514   183.07422828
 C     42  41  34     3.179505985074   113.11667140    91.14410638
 H     43  42  41     2.186524041785   109.39080040   296.41153586
 H     43  42  41     2.186899395076   109.35354322   176.30362033
 H     43  42  41     2.187118956269   109.19993253    56.42302632
 H     42  41  34     2.176618602731   108.53775397   330.78764023
 H     42  41  34     2.175427330303   108.51774593   211.64879665
 H     41  34  33     2.182842422927   109.83912152   303.95126285
 H     41  34  33     2.185658844656   109.43241559    63.37799561
 H      1   2   3     2.003101227765   127.25999841   180.00023731
 H      4   3   2     2.003116455844   127.20659271   180.00039850
 H     26  19  18     2.003122015624    46.48960179   276.32104177
 H     29  28  27     2.003103551958   127.20635604   180.00018046

----------------------------
SLATER BASIS SET DIM= 120
----------------------------
  0 C     2 shells
 l=0 nsto= 1
    2       1.625000000000        1.000000000000
 l=1 nsto= 1
    2       1.625000000000        1.000000000000
  1 C     2 shells
 l=0 nsto= 1
    2       1.625000000000        1.000000000000
 l=1 nsto= 1
    2       1.625000000000        1.000000000000
  2 C     2 shells
 l=0 nsto= 1
    2       1.625000000000        1.000000000000
 l=1 nsto= 1
    2       1.625000000000        1.000000000000
  3 C     2 shells
 l=0 nsto= 1
    2       1.625000000000        1.000000000000
 l=1 nsto= 1
    2       1.625000000000        1.000000000000
  4 S     2 shells
 l=0 nsto= 1
    3       1.925000000000        1.000000000000
 l=1 nsto= 1
    3       1.925000000000        1.000000000000
  5 H     1 shells
 l=0 nsto= 1
    1       1.200000000000        1.000000000000
  6 C     2 shells
 l=0 nsto= 1
    2       1.625000000000        1.000000000000
 l=1 nsto= 1
    2       1.625000000000        1.000000000000
  7 C     2 shells
 l=0 nsto= 1
    2       1.625000000000        1.000000000000
 l=1 nsto= 1
    2       1.625000000000        1.000000000000
  8 C     2 shells
 l=0 nsto= 1
    2       1.625000000000        1.000000000000
 l=1 nsto= 1
    2       1.625000000000        1.000000000000
  9 H     1 shells
 l=0 nsto= 1
    1       1.200000000000        1.000000000000
 10 H     1 shells
 l=0 nsto= 1
    1       1.200000000000        1.000000000000
 11 H     1 shells
 l=0 nsto= 1
    1       1.200000000000        1.000000000000
 12 H     1 shells
 l=0 nsto= 1
    1       1.200000000000        1.000000000000
 13 H     1 shells
 l=0 nsto= 1
    1       1.200000000000        1.000000000000
 14 H     1 shells
 l=0 nsto= 1
    1       1.200000000000        1.000000000000
 15 C     2 shells
 l=0 nsto= 1
    2       1.625000000000        1.000000000000
 l=1 nsto= 1
    2       1.625000000000        1.000000000000
 16 C     2 shells
 l=0 nsto= 1
    2       1.625000000000        1.000000000000
 l=1 nsto= 1
    2       1.625000000000        1.000000000000
 17 C     2 shells
 l=0 nsto= 1
    2       1.625000000000        1.000000000000
 l=1 nsto= 1
    2       1.625000000000        1.000000000000
 18 H     1 shells
 l=0 nsto= 1
    1       1.200000000000        1.000000000000
 19 H     1 shells
 l=0 nsto= 1
    1       1.200000000000        1.000000000000
 20 H     1 shells
 l=0 nsto= 1
    1       1.200000000000        1.000000000000
 21 H     1 shells
 l=0 nsto= 1
    1       1.200000000000        1.000000000000
 22 H     1 shells
 l=0 nsto= 1
    1       1.200000000000        1.000000000000
 23 H     1 shells
 l=0 nsto= 1
    1       1.200000000000        1.000000000000
 24 H     1 shells
 l=0 nsto= 1
    1       1.200000000000        1.000000000000
 25 C     2 shells
 l=0 nsto= 1
    2       1.625000000000        1.000000000000
 l=1 nsto= 1
    2       1.625000000000        1.000000000000
 26 C     2 shells
 l=0 nsto= 1
    2       1.625000000000        1.000000000000
 l=1 nsto= 1
    2       1.625000000000        1.000000000000
 27 C     2 shells
 l=0 nsto= 1
    2       1.625000000000        1.000000000000
 l=1 nsto= 1
    2       1.625000000000        1.000000000000
 28 C     2 shells
 l=0 nsto= 1
    2       1.625000000000        1.000000000000
 l=1 nsto= 1
    2       1.625000000000        1.000000000000
 29 S     2 shells
 l=0 nsto= 1
    3       1.925000000000        1.000000000000
 l=1 nsto= 1
    3       1.925000000000        1.000000000000
 30 H     1 shells
 l=0 nsto= 1
    1       1.200000000000        1.000000000000
 31 C     2 shells
 l=0 nsto= 1
    2       1.625000000000        1.000000000000
 l=1 nsto= 1
    2       1.625000000000        1.000000000000
 32 C     2 shells
 l=0 nsto= 1
    2       1.625000000000        1.000000000000
 l=1 nsto= 1
    2       1.625000000000        1.000000000000
 33 C     2 shells
 l=0 nsto= 1
    2       1.625000000000        1.000000000000
 l=1 nsto= 1
    2       1.625000000000        1.000000000000
 34 H     1 shells
 l=0 nsto= 1
    1       1.200000000000        1.000000000000
 35 H     1 shells
 l=0 nsto= 1
    1       1.200000000000        1.000000000000
 36 H     1 shells
 l=0 nsto= 1
    1       1.200000000000        1.000000000000
 37 H     1 shells
 l=0 nsto= 1
    1       1.200000000000        1.000000000000
 38 H     1 shells
 l=0 nsto= 1
    1       1.200000000000        1.000000000000
 39 H     1 shells
 l=0 nsto= 1
    1       1.200000000000        1.000000000000
 40 C     2 shells
 l=0 nsto= 1
    2       1.625000000000        1.000000000000
 l=1 nsto= 1
    2       1.625000000000        1.000000000000
 41 C     2 shells
 l=0 nsto= 1
    2       1.625000000000        1.000000000000
 l=1 nsto= 1
    2       1.625000000000        1.000000000000
 42 C     2 shells
 l=0 nsto= 1
    2       1.625000000000        1.000000000000
 l=1 nsto= 1
    2       1.625000000000        1.000000000000
 43 H     1 shells
 l=0 nsto= 1
    1       1.200000000000        1.000000000000
 44 H     1 shells
 l=0 nsto= 1
    1       1.200000000000        1.000000000000
 45 H     1 shells
 l=0 nsto= 1
    1       1.200000000000        1.000000000000
 46 H     1 shells
 l=0 nsto= 1
    1       1.200000000000        1.000000000000
 47 H     1 shells
 l=0 nsto= 1
    1       1.200000000000        1.000000000000
 48 H     1 shells
 l=0 nsto= 1
    1       1.200000000000        1.000000000000
 49 H     1 shells
 l=0 nsto= 1
    1       1.200000000000        1.000000000000
 50 H     1 shells
 l=0 nsto= 1
    1       1.200000000000        1.000000000000
 51 H     1 shells
 l=0 nsto= 1
    1       1.200000000000        1.000000000000
 52 H     1 shells
 l=0 nsto= 1
    1       1.200000000000        1.000000000000
 53 H     1 shells
 l=0 nsto= 1
    1       1.200000000000        1.000000000000
------------------------------------------------------------------------------
                           ORCA NDO INTEGRAL CALCULATION
------------------------------------------------------------------------------

--------------
NDO PARAMETERS
--------------

Gamma integral treatment              ... Mataga-Nishimoto
Nuclear repulsuion treatment          ... Direct (ZA*ZB/RAB)
Interaction factors:
s-s (sigma) =    1.0000
s-p (sigma) =    1.0000
s-d (sigma) =    1.0000
p-p (sigma) =    1.2670  p-p(pi) =    0.5850
p-d (sigma) =    1.0000  p-d(pi) =    1.0000
d-d (sigma) =    1.0000  d-d(pi) =    1.0000 d-d (delta) =    1.0000

fGamma parameter for Mataga-Nishimoto gamma integrals:    1.2000

--------------------------
Parameters for Element H :
--------------------------
 One-electron parameters (in eV)
  U(s)  =   -13.060000 Beta(s) =    12.000000 Neff(s) =     1.000000
 One-center electron repulsion parameters (in eV)
  G(s,s)=    12.850000
--------------------------
Parameters for Element C :
--------------------------
 One-electron parameters (in eV)
  U(s)  =   -50.870766 Beta(s) =    17.000000 Neff(s) =     2.000000
  U(p)  =   -41.599980 Beta(p) =    17.000000 Neff(p) =     2.000000 
 One-center electron repulsion parameters (in eV)
  G(s,s)=    11.110000
  G(s,p)=    11.110000 G(p,p)  =    11.110000
 Slater-Condon parameters (in eV)
 F2(p,p)=     4.5098 G1(s,p)=    6.8977
--------------------------
Parameters for Element S :
--------------------------
 One-electron parameters (in eV)
  U(s)  =   -69.509597 Beta(s) =    15.000000 Neff(s) =     2.000000
  U(p)  =   -60.725746 Beta(p) =    15.000000 Neff(p) =     4.000000 
 One-center electron repulsion parameters (in eV)
  G(s,s)=    10.090000
  G(s,p)=    10.090000 G(p,p)  =    10.090000
 Slater-Condon parameters (in eV)
 F2(p,p)=     4.5377 G1(s,p)=    3.0756

 Number of atoms                    ....   54
 Number of basis functions          ....  120

 Overlap integrals                  .... done
 One electron matrix                .... done
 Nuclear repulsion                  .... done
 Integral list                      .... done
 Electron-electron repulsion        .... done
-------------------------------------------------------------------------------
                                 ORCA SCF
-------------------------------------------------------------------------------

------------
SCF SETTINGS
------------
Hamiltonian:
 ZDO-Hamiltonian        Method          .... INDO


General Settings:
 Integral files         IntName         .... /home/mattyjones/Software/morphct/tests/output_EZ/donor_polymer/chromophores/input_orca/pair/00008-00021
 Hartree-Fock type      HFTyp           .... RHF
 Total Charge           Charge          ....    0
 Multiplicity           Mult            ....    1
 Number of Electrons    NEL             ....  124
 Basis Dimension        Dim             ....  120
 Nuclear Repulsion      ENuc            ....    627.1946662352 Eh

Convergence Acceleration:
 DIIS                   CNVDIIS         .... on
   Start iteration      DIISMaxIt       ....    12
   Startup error        DIISStart       ....  0.200000
   # of expansion vecs  DIISMaxEq       ....     5
   Bias factor          DIISBfac        ....   1.050
   Max. coefficient     DIISMaxC        ....  10.000
 Newton-Raphson         CNVNR           .... off
 SOSCF                  CNVSOSCF        .... on
   Start iteration      SOSCFMaxIt      ....   150
   Startup grad/error   SOSCFStart      ....  0.003300
 Level Shifting         CNVShift        .... on
   Level shift para.    LevelShift      ....    0.2500
   Turn off err/grad.   ShiftErr        ....    0.0010
 Zerner damping         CNVZerner       .... off
 Static damping         CNVDamp         .... on
   Fraction old density DampFac         ....    0.7000
   Max. Damping (<1)    DampMax         ....    0.9800
   Min. Damping (>=0)   DampMin         ....    0.0000
   Turn off err/grad.   DampErr         ....    0.1000
 Fernandez-Rico         CNVRico         .... off

SCF Procedure:
 Maximum # iterations   MaxIter         ....   125
 SCF integral mode      SCFMode         .... Conventional
 Integral Buffer length BufferLength    .... 1048576
 Integral index format  IndFormat       ....     0
 Integral value format  ValFormat       ....     0
 Integral Storage       Thresh          ....  1.000e-08 Eh

Convergence Tolerance:
 Convergence Check Mode ConvCheckMode   .... Total+1el-Energy
 Convergence forced     ConvForced      .... 0
 Energy Change          TolE            ....  1.000e-06 Eh
 1-El. energy change                    ....  1.000e-03 Eh
 Orbital Gradient       TolG            ....  5.000e-05
 Orbital Rotation angle TolX            ....  5.000e-05
 DIIS Error             TolErr          ....  1.000e-06


Diagonalization of the overlap matrix:
Smallest eigenvalue                        ... 1.697e-01
Time for diagonalization                   ...    0.003 sec
Threshold for overlap eigenvalues          ... 1.000e-08
Number of eigenvalues below threshold      ... 0
Time for construction of square roots      ...    0.000 sec
Total time needed                          ...    0.003 sec

-------------------------------
INITIAL GUESS: EXTENDED HUECKEL
-------------------------------
EHT matrix was read from disk
EHT matrix was diagonalized
Initial density was built
                      ------------------
                      INITIAL GUESS DONE
                      ------------------

 InCore treatment chosen:
   Memory dedicated               ...    1024 MB
   Memory needed                  ...      0 MB
   Number of tiny    integrals    ...       0
   Number of small   integrals    ...       0
   Number of regular integrals    ...    7392

--------------
SCF ITERATIONS
--------------
ITER       Energy         Delta-E        Max-DP      RMS-DP      [F,P]     Damp
  0    -22.1439373891   0.000000000000 0.04188954  0.00144464  0.0910008 0.7000
  1    -22.1855354915  -0.041598102424 0.03961306  0.00135995  0.0650626 0.7000
                               ***Turning on DIIS***
  2    -22.2163183191  -0.030782827565 0.10069627  0.00348823  0.0426045 0.0000
  3    -22.2971312606  -0.080812941484 0.01584954  0.00071743  0.0193724 0.0000
  4    -22.2819538088   0.015177451834 0.01136085  0.00049256  0.0070307 0.0000
  5    -22.2988387828  -0.016884974068 0.00794554  0.00033355  0.0040795 0.0000
  6    -22.3013006167  -0.002461833855 0.00589850  0.00023691  0.0021935 0.0000
                      *** Initiating the SOSCF procedure ***
                           *** Shutting down DIIS ***
                      *** Re-Reading the Fockian *** 
                      *** Removing any level shift *** 
ITER      Energy       Delta-E        Grad      Rot      Max-DP    RMS-DP
  7    -22.29721759   0.0040830307  0.003012  0.003012  0.003509  0.000133
  8    -22.29528438   0.0019332024  0.000800  0.002194  0.001742  0.000061
  9    -22.29529865  -0.0000142638  0.000353  0.002140  0.001948  0.000065
 10    -22.29530385  -0.0000052009  0.000030  0.000072  0.000111  0.000004
                 **** Energy Check signals convergence ****
              ***Rediagonalizing the Fockian in SOSCF/NRSCF***

               *****************************************************
               *                     SUCCESS                       *
               *           SCF CONVERGED AFTER  11 CYCLES          *
               *****************************************************


----------------
TOTAL SCF ENERGY
----------------

Total Energy       :          -22.29530389 Eh            -606.68606 eV

Components:
Nuclear Repulsion  :          627.19466624 Eh           17066.83453 eV
Electronic Energy  :         -649.48997013 Eh          -17673.52059 eV
One Electron Energy:        -1208.54362467 Eh          -32886.14393 eV
Two Electron Energy:          559.05365454 Eh           15212.62333 eV


---------------
SCF CONVERGENCE
---------------

  Last Energy change         ...   -4.5282e-08  Tolerance :   1.0000e-06
  Last MAX-Density change    ...    5.0685e-05  Tolerance :   1.0000e-05
  Last RMS-Density change    ...    1.2852e-06  Tolerance :   1.0000e-06
  Last Orbital Gradient      ...    9.7218e-06  Tolerance :   5.0000e-05
  Last Orbital Rotation      ...    2.2885e-05  Tolerance :   5.0000e-05

             **** THE GBW FILE WAS UPDATED (/home/mattyjones/Software/morphct/tests/output_EZ/donor_polymer/chromophores/input_orca/pair/00008-00021.gbw) ****
             **** DENSITY FILE WAS UPDATED (/home/mattyjones/Software/morphct/tests/output_EZ/donor_polymer/chromophores/input_orca/pair/00008-00021.scfp.tmp) ****
             **** ENERGY FILE WAS UPDATED (/home/mattyjones/Software/morphct/tests/output_EZ/donor_polymer/chromophores/input_orca/pair/00008-00021.en.tmp) ****
----------------
ORBITAL ENERGIES
----------------

  NO   OCC          E(Eh)            E(eV) 
   0   2.0000      -1.556652       -42.3586 
   1   2.0000      -1.556046       -42.3422 
   2   2.0000      -1.403798       -38.1993 
   3   2.0000      -1.397415       -38.0256 
   4   2.0000      -1.291529       -35.1443 
   5   2.0000      -1.289152       -35.0796 
   6   2.0000      -1.182262       -32.1710 
   7   2.0000      -1.171592       -31.8807 
   8   2.0000      -1.111054       -30.2333 
   9   2.0000      -1.110754       -30.2252 
  10   2.0000      -1.056984       -28.7620 
  11   2.0000      -1.030627       -28.0448 
  12   2.0000      -0.970246       -26.4017 
  13   2.0000      -0.947965       -25.7955 
  14   2.0000      -0.912013       -24.8171 
  15   2.0000      -0.887686       -24.1552 
  16   2.0000      -0.861503       -23.4427 
  17   2.0000      -0.847974       -23.0745 
  18   2.0000      -0.838134       -22.8068 
  19   2.0000      -0.832197       -22.6452 
  20   2.0000      -0.788457       -21.4550 
  21   2.0000      -0.774078       -21.0637 
  22   2.0000      -0.737280       -20.0624 
  23   2.0000      -0.727798       -19.8044 
  24   2.0000      -0.688702       -18.7405 
  25   2.0000      -0.688353       -18.7311 
  26   2.0000      -0.673696       -18.3322 
  27   2.0000      -0.668383       -18.1876 
  28   2.0000      -0.653097       -17.7717 
  29   2.0000      -0.650392       -17.6981 
  30   2.0000      -0.614862       -16.7313 
  31   2.0000      -0.612692       -16.6722 
  32   2.0000      -0.583807       -15.8862 
  33   2.0000      -0.583257       -15.8712 
  34   2.0000      -0.576877       -15.6976 
  35   2.0000      -0.575277       -15.6541 
  36   2.0000      -0.575255       -15.6535 
  37   2.0000      -0.561927       -15.2908 
  38   2.0000      -0.556685       -15.1482 
  39   2.0000      -0.554719       -15.0947 
  40   2.0000      -0.533336       -14.5128 
  41   2.0000      -0.531214       -14.4551 
  42   2.0000      -0.521870       -14.2008 
  43   2.0000      -0.516868       -14.0647 
  44   2.0000      -0.508071       -13.8253 
  45   2.0000      -0.507984       -13.8229 
  46   2.0000      -0.496782       -13.5181 
  47   2.0000      -0.496249       -13.5036 
  48   2.0000      -0.488919       -13.3042 
  49   2.0000      -0.488320       -13.2879 
  50   2.0000      -0.476467       -12.9653 
  51   2.0000      -0.474756       -12.9188 
  52   2.0000      -0.473829       -12.8935 
  53   2.0000      -0.471787       -12.8380 
  54   2.0000      -0.467471       -12.7205 
  55   2.0000      -0.460710       -12.5366 
  56   2.0000      -0.441077       -12.0023 
  57   2.0000      -0.437208       -11.8970 
  58   2.0000      -0.357085        -9.7168 
  59   2.0000      -0.356997        -9.7144 
  60   2.0000      -0.305229        -8.3057 
  61   2.0000      -0.304760        -8.2929 
  62   0.0000       0.007528         0.2048 
  63   0.0000       0.007774         0.2115 
  64   0.0000       0.067685         1.8418 
  65   0.0000       0.069352         1.8872 
  66   0.0000       0.075406         2.0519 
  67   0.0000       0.075844         2.0638 
  68   0.0000       0.087686         2.3861 
  69   0.0000       0.088008         2.3948 
  70   0.0000       0.103606         2.8193 
  71   0.0000       0.105428         2.8689 
  72   0.0000       0.107552         2.9266 
  73   0.0000       0.108334         2.9479 
  74   0.0000       0.122825         3.3423 
  75   0.0000       0.124478         3.3872 
  76   0.0000       0.140106         3.8125 
  77   0.0000       0.144420         3.9299 
  78   0.0000       0.155007         4.2180 
  79   0.0000       0.157317         4.2808 
  80   0.0000       0.163833         4.4581 
  81   0.0000       0.166382         4.5275 
  82   0.0000       0.168670         4.5898 
  83   0.0000       0.172539         4.6950 
  84   0.0000       0.203645         5.5415 
  85   0.0000       0.204449         5.5633 
  86   0.0000       0.232860         6.3364 
  87   0.0000       0.233542         6.3550 
  88   0.0000       0.234084         6.3697 
  89   0.0000       0.235081         6.3969 
  90   0.0000       0.236984         6.4487 
  91   0.0000       0.238568         6.4918 
  92   0.0000       0.239583         6.5194 
  93   0.0000       0.239779         6.5247 
  94   0.0000       0.242354         6.5948 
  95   0.0000       0.242419         6.5966 
  96   0.0000       0.243306         6.6207 
  97   0.0000       0.244202         6.6451 
  98   0.0000       0.245082         6.6690 
  99   0.0000       0.246522         6.7082 
 100   0.0000       0.253872         6.9082 
 101   0.0000       0.256642         6.9836 
 102   0.0000       0.257656         7.0112 
 103   0.0000       0.262698         7.1484 
 104   0.0000       0.266328         7.2471 
 105   0.0000       0.267070         7.2673 
 106   0.0000       0.276096         7.5130 
 107   0.0000       0.277693         7.5564 
 108   0.0000       0.299368         8.1462 
 109   0.0000       0.302861         8.2413 
 110   0.0000       0.310105         8.4384 
 111   0.0000       0.310143         8.4394 
 112   0.0000       0.338618         9.2143 
 113   0.0000       0.341711         9.2984 
 114   0.0000       0.351132         9.5548 
 115   0.0000       0.353986         9.6324 
 116   0.0000       0.412074        11.2131 
 117   0.0000       0.417180        11.3520 
 118   0.0000       0.429077        11.6758 
 119   0.0000       0.430526        11.7152 
-------
TIMINGS
-------

Total SCF time: 0 days 0 hours 0 min 0 sec 

Total time                  ....       0.124 sec
Sum of individual times     ....       0.104 sec  ( 83.8%)

Fock matrix formation       ....       0.043 sec  ( 34.3%)
Diagonalization             ....       0.029 sec  ( 23.0%)
Density matrix formation    ....       0.003 sec  (  2.4%)
Population analysis         ....       0.000 sec  (  0.0%)
Initial guess               ....       0.003 sec  (  2.5%)
Orbital Transformation      ....       0.000 sec  (  0.0%)
Orbital Orthonormalization  ....       0.000 sec  (  0.0%)
DIIS solution               ....       0.005 sec  (  4.0%)
SOSCF solution              ....       0.022 sec  ( 17.8%)

-------------------------   --------------------
FINAL SINGLE POINT ENERGY       -22.295303893533
-------------------------   --------------------


                            ***************************************
                            *     ORCA property calculations      *
                            ***************************************

                                    ---------------------
                                    Active property flags
                                    ---------------------
   (+) Dipole Moment


------------------------------------------------------------------------------
                       ORCA ELECTRIC PROPERTIES CALCULATION
------------------------------------------------------------------------------

Dipole Moment Calculation                       ... on
Quadrupole Moment Calculation                   ... off
Polarizability Calculation                      ... off
GBWName                                         ... /home/mattyjones/Software/morphct/tests/output_EZ/donor_polymer/chromophores/input_orca/pair/00008-00021.gbw
Electron density file                           ... /home/mattyjones/Software/morphct/tests/output_EZ/donor_polymer/chromophores/input_orca/pair/00008-00021.scfp.tmp
The origin for moment calculation is the CENTER OF MASS  = ( 2.177222,  1.385641 -0.463777)

-------------
DIPOLE MOMENT
-------------
                                X             Y             Z
Electronic contribution:    238.87030     152.54727     -47.53964
Nuclear contribution   :   -128.36339     -82.01631      25.90524
                        -----------------------------------------
Total Dipole Moment    :    110.50690      70.53096     -21.63439
                        -----------------------------------------
Magnitude (a.u.)       :    132.87001
Magnitude (Debye)      :    337.72872


Timings for individual modules:

Sum of individual times         ...        0.163 sec (=   0.003 min)
STO integral calculation        ...        0.020 sec (=   0.000 min)  12.2 %
SCF iterations                  ...        0.143 sec (=   0.002 min)  87.8 %
                             ****ORCA TERMINATED NORMALLY****
TOTAL RUN TIME: 0 days 0 hours 0 minutes 0 seconds 455 msec

