
                                 *****************
                                 * O   R   C   A *
                                 *****************

           --- An Ab Initio, DFT and Semiempirical electronic structure package ---

                  #######################################################
                  #                        -***-                        #
                  #  Department of molecular theory and spectroscopy    #
                  #              Directorship: Frank Neese              #
                  # Max Planck Institute for Chemical Energy Conversion #
                  #                  D-45470 Muelheim/Ruhr              #
                  #                       Germany                       #
                  #                                                     #
                  #                  All rights reserved                #
                  #                        -***-                        #
                  #######################################################


                         Program Version 3.0.3 - RELEASE   -


 With contributions from (in alphabetic order):
   Ute Becker             : Parallelization
   Dmytro Bykov           : SCF Hessian
   Dmitry Ganyushin       : Spin-Orbit,Spin-Spin,Magnetic field MRCI
   Andreas Hansen         : Spin unrestricted coupled pair/coupled cluster methods
   Dimitrios Liakos       : Extrapolation schemes; parallel MDCI
   Robert Izsak           : Overlap fitted RIJCOSX, COSX-SCS-MP3
   Christian Kollmar      : KDIIS, OOCD, Brueckner-CCSD(T), CCSD density
   Simone Kossmann        : Meta GGA functionals, TD-DFT gradient, OOMP2, MP2 Hessian
   Taras Petrenko         : DFT Hessian,TD-DFT gradient, ASA and ECA modules, normal mode analysis, Resonance Raman, ABS, FL, XAS/XES, NRVS
   Christoph Reimann      : Effective Core Potentials
   Michael Roemelt        : Restricted open shell CIS
   Christoph Riplinger    : Improved optimizer, TS searches, QM/MM, DLPNO-CCSD
   Barbara Sandhoefer     : DKH picture change effects
   Igor Schapiro          : Molecular dynamics
   Kantharuban Sivalingam : CASSCF convergence, NEVPT2
   Boris Wezisla          : Elementary symmetry handling
   Frank Wennmohs         : Technical directorship


 We gratefully acknowledge several colleagues who have allowed us to
 interface, adapt or use parts of their codes:
   Stefan Grimme, W. Hujo, H. Kruse, T. Risthaus : VdW corrections, initial TS optimization,
                                                   DFT functionals, gCP
   Ed Valeev                                     : LibInt (2-el integral package), F12 methods
   Garnet Chan, S. Sharma, R. Olivares           : DMRG
   Ulf Ekstrom                                   : XCFun DFT Library
   Mihaly Kallay                                 : mrcc  (arbitrary order and MRCC methods)
   Andreas Klamt, Michael Diedenhofen            : otool_cosmo (COSMO solvation model)
   Frank Weinhold                                : gennbo (NPA and NBO analysis)
   Christopher J. Cramer and Donald G. Truhlar   : smd solvation model


 Your calculation uses the libint2 library for the computation of 2-el integrals
 For citations please refer to: http://libint.valeyev.net

 This ORCA versions uses:
   CBLAS   interface :  Fast vector & matrix operations
   LAPACKE interface :  Fast linear algebra routines
   SCALAPACK package :  Parallel linear algebra routines


leaving
================================================================================
                                        WARNINGS
                       Please study these warnings very carefully!
================================================================================
Now building the actual basis set

WARNING: Direct SCF is incompatible with Method<>HF and Method<>DFT
  ===> : conventional SCF is chosen

WARNING: The NDO methods need Guess=HUECKEL or Guess=HCORE or Guess=MOREAD
  ===> : Guess is set to Hueckel

WARNING: The NDO methods need %rel::SOCType==1
  ===> : %rel::SOCType is set to 1

WARNING: The NDO methods cannot have frozencore=1
  ===> : %method FrozenCore=0 end


INFO   : the flag for use of LIBINT has been found!

================================================================================
                                       INPUT FILE
================================================================================
NAME = /Users/mattyjones/GoogleDrive/Boise/Code/MorphCT/tests/output_EZ/donor_polymer/chromophores/input_orca/pair/00002-00028.inp
|  1> # ================================================================
|  2> # Orca input file made by Matty Jones
|  3> # ================================================================
|  4> ! ZINDO/S 
|  5> ! NOPOP
|  6> ! NOMOPRINT
|  7> * xyz 0   1
|  8>  C  -19.38673  -2.55300  -13.35100
|  9>  C  -20.07096  -3.76561  -13.44751
| 10>  C  -19.49216  -4.82516  -12.68159
| 11>  C  -18.34511  -4.44729  -11.97675
| 12>  S  -18.11071  -2.84467  -12.33326
| 13>  H  -21.14477  -3.78724  -13.82703
| 14>  C  -20.17002  -6.25863  -12.71851
| 15>  C  -21.85244  -6.19686  -12.50927
| 16>  C  -22.51424  -6.00583  -14.04580
| 17>  H  -23.48093  -5.38488  -13.95045
| 18>  H  -21.76350  -5.45071  -14.72502
| 19>  H  -22.22380  -7.16542  -12.02100
| 20>  H  -22.12890  -5.29049  -11.85582
| 21>  H  -19.82086  -6.97516  -11.88987
| 22>  H  -19.93825  -6.77432  -13.74553
| 23>  C  -22.80036  -7.43717  -14.76110
| 24>  C  -23.25359  -7.34049  -16.38428
| 25>  C  -23.30280  -5.79665  -17.05454
| 26>  H  -23.58511  -5.88322  -18.17433
| 27>  H  -22.26472  -5.29494  -16.96040
| 28>  H  -24.09673  -5.16166  -16.50265
| 29>  H  -22.49784  -7.96314  -16.99385
| 30>  H  -24.30395  -7.80447  -16.48542
| 31>  H  -21.85039  -8.09543  -14.70079
| 32>  H  -23.65619  -7.97322  -14.19376
| 33>  C  19.42929  1.81154  12.93277
| 34>  C  20.07657  2.91874  13.48326
| 35>  C  19.20701  3.82024  14.17279
| 36>  C  17.86635  3.42286  14.16676
| 37>  S  17.82794  1.99710  13.32050
| 38>  H  21.20656  3.07667  13.43800
| 39>  C  19.70379  5.16869  14.91396
| 40>  C  20.90174  6.16016  14.24523
| 41>  C  22.40281  5.70184  14.88874
| 42>  H  22.46815  4.54849  14.83103
| 43>  H  22.38255  6.00882  16.00736
| 44>  H  20.92124  6.02197  13.10594
| 45>  H  20.69112  7.25642  14.51526
| 46>  H  18.78530  5.88253  15.05309
| 47>  H  20.10116  4.89479  15.97427
| 48>  C  23.72157  6.35076  14.19637
| 49>  C  24.14085  7.92444  14.64076
| 50>  C  23.46426  9.07628  13.61510
| 51>  H  22.96376  8.55458  12.71127
| 52>  H  24.29757  9.78488  13.23560
| 53>  H  22.67017  9.68566  14.19557
| 54>  H  23.77655  8.12189  15.71452
| 55>  H  25.28809  8.02239  14.59682
| 56>  H  23.59399  6.32860  13.04668
| 57>  H  24.63287  5.68478  14.46919
| 58>  H  -19.63128  -1.63843  -13.82782
| 59>  H  -17.75000  -5.05742  -11.34652
| 60>  H  19.86878  1.01910  12.38279
| 61>  H  17.04630  3.92730  14.61022
| 62> *
| 63> 
| 64>                          ****END OF INPUT****
================================================================================

                       ****************************
                       * Single Point Calculation *
                       ****************************

---------------------------------
CARTESIAN COORDINATES (ANGSTROEM)
---------------------------------
  C    -19.386730   -2.553000  -13.351000
  C    -20.070960   -3.765610  -13.447510
  C    -19.492160   -4.825160  -12.681590
  C    -18.345110   -4.447290  -11.976750
  S    -18.110710   -2.844670  -12.333260
  H    -21.144770   -3.787240  -13.827030
  C    -20.170020   -6.258630  -12.718510
  C    -21.852440   -6.196860  -12.509270
  C    -22.514240   -6.005830  -14.045800
  H    -23.480930   -5.384880  -13.950450
  H    -21.763500   -5.450710  -14.725020
  H    -22.223800   -7.165420  -12.021000
  H    -22.128900   -5.290490  -11.855820
  H    -19.820860   -6.975160  -11.889870
  H    -19.938250   -6.774320  -13.745530
  C    -22.800360   -7.437170  -14.761100
  C    -23.253590   -7.340490  -16.384280
  C    -23.302800   -5.796650  -17.054540
  H    -23.585110   -5.883220  -18.174330
  H    -22.264720   -5.294940  -16.960400
  H    -24.096730   -5.161660  -16.502650
  H    -22.497840   -7.963140  -16.993850
  H    -24.303950   -7.804470  -16.485420
  H    -21.850390   -8.095430  -14.700790
  H    -23.656190   -7.973220  -14.193760
  C     19.429290    1.811540   12.932770
  C     20.076570    2.918740   13.483260
  C     19.207010    3.820240   14.172790
  C     17.866350    3.422860   14.166760
  S     17.827940    1.997100   13.320500
  H     21.206560    3.076670   13.438000
  C     19.703790    5.168690   14.913960
  C     20.901740    6.160160   14.245230
  C     22.402810    5.701840   14.888740
  H     22.468150    4.548490   14.831030
  H     22.382550    6.008820   16.007360
  H     20.921240    6.021970   13.105940
  H     20.691120    7.256420   14.515260
  H     18.785300    5.882530   15.053090
  H     20.101160    4.894790   15.974270
  C     23.721570    6.350760   14.196370
  C     24.140850    7.924440   14.640760
  C     23.464260    9.076280   13.615100
  H     22.963760    8.554580   12.711270
  H     24.297570    9.784880   13.235600
  H     22.670170    9.685660   14.195570
  H     23.776550    8.121890   15.714520
  H     25.288090    8.022390   14.596820
  H     23.593990    6.328600   13.046680
  H     24.632870    5.684780   14.469190
  H    -19.631280   -1.638430  -13.827820
  H    -17.750000   -5.057420  -11.346520
  H     19.868780    1.019100   12.382790
  H     17.046300    3.927300   14.610220

----------------------------
CARTESIAN COORDINATES (A.U.)
----------------------------
  NO LB      ZA    FRAG    MASS        X           Y           Z
   0 C     4.0000    0    12.011        -36.635610332275149         -4.824470819900955        -25.229733613982631
   1 C     4.0000    0    12.011        -37.928617644888085         -7.115971627155204        -25.412111083167371
   2 C     4.0000    0    12.011        -36.834844158574462         -9.118230952351468        -23.964732042674406
   3 C     4.0000    0    12.011        -34.667233796660092         -8.404160138126644        -22.632777474441347
   4 S     6.0000    0    32.060        -34.224281990868953         -5.375647241381767        -23.306483738445614
   5 H     1.0000    0     1.008        -39.957824464754069         -7.156846403431921        -26.129299945513164
   6 C     4.0000    0    12.011        -38.115813915714327        -11.827096673543563        -24.034500731538778
   7 C     4.0000    0    12.011        -41.295126957946117        -11.710368290251248        -23.639094435277098
   8 C     4.0000    0    12.011        -42.545747713375199        -11.349373906888269        -26.542715331831115
   9 H     1.0000    0     1.008        -44.372527069775536        -10.175948464029869        -26.362529944961725
  10 H     1.0000    0     1.008        -41.127054715595165        -10.300349135425906        -27.826255116513110
  11 H     1.0000    0     1.008        -41.996895655039111        -13.540681434522016        -22.716397855867367
  12 H     1.0000    0     1.008        -41.817560644929991         -9.997577214249043        -22.404252893066253
  13 H     1.0000    0     1.008        -37.455997138794380        -13.181142140282157        -22.468598067926273
  14 H     1.0000    0     1.008        -37.677832089655396        -12.801609543545414        -25.975287265598585
  15 C     4.0000    0    12.011        -43.086436154812752        -14.054214511415115        -27.894436435424989
  16 C     4.0000    0    12.011        -43.942916730489877        -13.871515788787608        -30.961802101483286
  17 C     4.0000    0    12.011        -44.035910153540144        -10.954080994194623        -32.228409940005342
  18 H     1.0000    0     1.008        -44.569398738407450        -11.117674585608185        -34.344506367509027
  19 H     1.0000    0     1.008        -42.074223248439168        -10.005986495544994        -32.050511121757999
  20 H     1.0000    0     1.008        -45.536220423044242         -9.754123796415968        -31.185488983955540
  21 H     1.0000    0     1.008        -42.514756204778891        -15.048153766073677        -32.113722460937659
  22 H     1.0000    0     1.008        -45.927809472515406        -14.748310920404391        -31.152929002668085
  23 H     1.0000    0     1.008        -41.291253019371581        -15.298145636330119        -27.780467052288195
  24 H     1.0000    0     1.008        -44.703720472006573        -15.067202205503603        -26.822319210606103
  25 C     4.0000    0    12.011         36.716037076534839          3.423314480643704         24.439393452992746
  26 C     4.0000    0    12.011         37.939219008499386          5.515619256121314         25.479668792455055
  27 C     4.0000    0    12.011         36.295988751486817          7.219207365851322         26.782691653577778
  28 C     4.0000    0    12.011         33.762508512783953          6.468267994753695         26.771296604990230
  29 S     6.0000    0    32.060         33.689924131980042          3.773972062054132         25.172096966898032
  30 H     1.0000    0     1.008         40.074590642569056          5.814063704451497         25.394139787633780
  31 C     4.0000    0    12.011         37.234766900296222          9.767408571137434         28.183299972256190
  32 C     4.0000    0    12.011         39.498564322427185         11.641015341136338         26.919583414719032
  33 C     4.0000    0    12.011         42.335175530272352         10.774916059437549         28.135641079158695
  34 H     1.0000    0     1.008         42.458650235862770          8.595400422879473         28.026584983970100
  35 H     1.0000    0     1.008         42.296889678799111         11.355024188028695         30.249526527085685
  36 H     1.0000    0     1.008         39.535413982038648         11.379874086689759         24.766637327603888
  37 H     1.0000    0     1.008         39.100550204100692         13.712646512708849         27.429866162661785
  38 H     1.0000    0     1.008         35.499072343550885         11.116370674575780         28.446217569268654
  39 H     1.0000    0     1.008         37.985687374132510          9.249812583056404         30.186995489314235
  40 C     4.0000    0    12.011         44.827270766642343         12.001197142261729         26.827251395815640
  41 C     4.0000    0    12.011         45.619595140072846         14.975021364690923         27.667026792468906
  42 C     4.0000    0    12.011         44.341025335123071         17.151683514786779         25.728810285951234
  43 H     1.0000    0     1.008         43.395217405095487         16.165813390720061         24.020819114329189
  44 H     1.0000    0     1.008         45.915753019780986         18.490743453283375         25.011659218128120
  45 H     1.0000    0     1.008         42.840412709437537         18.303244826275712         26.825739614908503
  46 H     1.0000    0     1.008         44.931167909485339         15.348147789833675         29.696139126028189
  47 H     1.0000    0     1.008         47.787564549952663         15.160120039508509         27.583992226144403
  48 H     1.0000    0     1.008         44.586179506476675         11.959320811134033         24.654652156907716
  49 H     1.0000    0     1.008         46.549378192484781         10.742677331592853         27.342806479672035
  50 H     1.0000    0     1.008        -37.097742858325589         -3.096183989600596        -26.130792829158960
  51 H     1.0000    0     1.008        -33.542638877102220         -9.557138744216015        -21.441815373060159
  52 H     1.0000    0     1.008         37.546552815131889          1.925819903079147         23.400081873858735
  53 H     1.0000    0     1.008         32.212838596661832          7.421521445748931         27.609314556338948

--------------------------------
INTERNAL COORDINATES (ANGSTROEM)
--------------------------------
 C      0   0   0   0.000000     0.000     0.000
 C      1   0   0   1.395675     0.000     0.000
 C      2   1   0   1.429786   114.101     0.000
 C      3   2   1   1.398324   113.693     0.000
 S      1   2   3   1.658039   105.480     0.000
 H      2   1   3   1.139110   120.111   161.973
 C      3   2   1   1.586094   118.964   180.566
 C      7   3   2   1.696506   112.833   313.034
 C      8   7   3   1.683863   106.341    88.542
 H      9   8   7   1.152892   108.372   211.958
 H      9   8   7   1.154603   109.621   331.498
 H      8   7   3   1.146483   110.059   208.760
 H      8   7   3   1.151058   109.686   330.190
 H      7   3   2   1.149770   114.624   194.777
 H      7   3   2   1.172358   109.478    74.188
 C      9   8   7   1.625501   111.767    88.964
 C     16   9   8   1.688040   114.833   188.429
 C     17  16   9   1.683779   116.304     1.816
 H     18  17  16   1.158069   108.874   177.774
 H     18  17  16   1.156800   109.818    58.186
 H     18  17  16   1.156771   109.479   297.543
 H     17  16   9   1.153441   107.538   122.583
 H     17  16   9   1.152720   107.816   240.540
 H     16   9   8   1.157319   109.477   309.620
 H     16   9   8   1.158304   108.786    68.063
 C      5   1   2  45.489605   163.341   178.858
 C     26   5   1   1.395673   133.079    21.467
 C     27  26   5   1.429786   114.101    47.738
 C     28  27  26   1.398326   113.693     0.000
 S     26   5   1   1.658038    49.028    92.314
 H     27  26   5   1.141870   123.576   224.898
 C     28  27  26   1.616923   124.058   179.261
 C     32  28  27   1.692719   121.656    39.323
 C     33  32  28   1.696282   108.550   266.200
 H     34  33  32   1.156640   107.487    46.715
 H     34  33  32   1.160154   106.191   291.049
 H     33  32  28   1.147806   109.490    25.335
 H     33  32  28   1.148505   109.659   146.819
 H     32  28  27   1.171558   108.766   160.207
 H     32  28  27   1.164981   109.021   277.282
 C     34  33  32   1.624685   116.660   169.856
 C     41  34  33   1.688119   117.500    79.871
 C     42  41  34   1.684188   112.176   267.746
 H     43  42  41   1.157402   109.939   351.927
 H     43  42  41   1.157817   109.211   231.964
 H     43  42  41   1.157095   109.291   112.031
 H     42  41  34   1.150939   109.081    28.465
 H     42  41  34   1.152252   108.451   147.830
 H     41  34  33   1.156959   109.046   316.801
 H     41  34  33   1.161218   107.928   199.717
 H      1   2   3   1.060000   127.259   180.000
 H      4   3   2   1.060002   127.206   180.000
 H     26   5   1   1.059996    88.708   237.565
 H     29  28  27   1.059999   127.206   180.000

---------------------------
INTERNAL COORDINATES (A.U.)
---------------------------
 C      0   0   0   0.000000     0.000     0.000
 C      1   0   0   2.637443     0.000     0.000
 C      2   1   0   2.701905   114.101     0.000
 C      3   2   1   2.642449   113.693     0.000
 S      1   2   3   3.133240   105.480     0.000
 H      2   1   3   2.152606   120.111   161.973
 C      3   2   1   2.997283   118.964   180.566
 C      7   3   2   3.205932   112.833   313.034
 C      8   7   3   3.182041   106.341    88.542
 H      9   8   7   2.178650   108.372   211.958
 H      9   8   7   2.181884   109.621   331.498
 H      8   7   3   2.166540   110.059   208.760
 H      8   7   3   2.175184   109.686   330.190
 H      7   3   2   2.172751   114.624   194.777
 H      7   3   2   2.215436   109.478    74.188
 C      9   8   7   3.071751   111.767    88.964
 C     16   9   8   3.189933   114.833   188.429
 C     17  16   9   3.181881   116.304     1.816
 H     18  17  16   2.188433   108.874   177.774
 H     18  17  16   2.186034   109.818    58.186
 H     18  17  16   2.185981   109.479   297.543
 H     17  16   9   2.179688   107.538   122.583
 H     17  16   9   2.178325   107.816   240.540
 H     16   9   8   2.187015   109.477   309.620
 H     16   9   8   2.188878   108.786    68.063
 C      5   1   2  85.962895   163.341   178.858
 C     26   5   1   2.637439   133.079    21.467
 C     27  26   5   2.701904   114.101    47.738
 C     28  27  26   2.642454   113.693     0.000
 S     26   5   1   3.133237    49.028    92.314
 H     27  26   5   2.157822   123.576   224.898
 C     28  27  26   3.055542   124.058   179.261
 C     32  28  27   3.198775   121.656    39.323
 C     33  32  28   3.205509   108.550   266.200
 H     34  33  32   2.185733   107.487    46.715
 H     34  33  32   2.192374   106.191   291.049
 H     33  32  28   2.169039   109.490    25.335
 H     33  32  28   2.170359   109.659   146.819
 H     32  28  27   2.213924   108.766   160.207
 H     32  28  27   2.201496   109.021   277.282
 C     34  33  32   3.070210   116.660   169.856
 C     41  34  33   3.190083   117.500    79.871
 C     42  41  34   3.182653   112.176   267.746
 H     43  42  41   2.187173   109.939   351.927
 H     43  42  41   2.187957   109.211   231.964
 H     43  42  41   2.186592   109.291   112.031
 H     42  41  34   2.174960   109.081    28.465
 H     42  41  34   2.177441   108.451   147.830
 H     41  34  33   2.186336   109.046   316.801
 H     41  34  33   2.194384   107.928   199.717
 H      1   2   3   2.003110   127.259   180.000
 H      4   3   2   2.003114   127.206   180.000
 H     26   5   1   2.003101    88.708   237.565
 H     29  28  27   2.003108   127.206   180.000

----------------------------
SLATER BASIS SET DIM= 120
----------------------------
  0 C     2 shells
 l=0 nsto= 1
    2       1.625000000000        1.000000000000
 l=1 nsto= 1
    2       1.625000000000        1.000000000000
  1 C     2 shells
 l=0 nsto= 1
    2       1.625000000000        1.000000000000
 l=1 nsto= 1
    2       1.625000000000        1.000000000000
  2 C     2 shells
 l=0 nsto= 1
    2       1.625000000000        1.000000000000
 l=1 nsto= 1
    2       1.625000000000        1.000000000000
  3 C     2 shells
 l=0 nsto= 1
    2       1.625000000000        1.000000000000
 l=1 nsto= 1
    2       1.625000000000        1.000000000000
  4 S     2 shells
 l=0 nsto= 1
    3       1.925000000000        1.000000000000
 l=1 nsto= 1
    3       1.925000000000        1.000000000000
  5 H     1 shells
 l=0 nsto= 1
    1       1.200000000000        1.000000000000
  6 C     2 shells
 l=0 nsto= 1
    2       1.625000000000        1.000000000000
 l=1 nsto= 1
    2       1.625000000000        1.000000000000
  7 C     2 shells
 l=0 nsto= 1
    2       1.625000000000        1.000000000000
 l=1 nsto= 1
    2       1.625000000000        1.000000000000
  8 C     2 shells
 l=0 nsto= 1
    2       1.625000000000        1.000000000000
 l=1 nsto= 1
    2       1.625000000000        1.000000000000
  9 H     1 shells
 l=0 nsto= 1
    1       1.200000000000        1.000000000000
 10 H     1 shells
 l=0 nsto= 1
    1       1.200000000000        1.000000000000
 11 H     1 shells
 l=0 nsto= 1
    1       1.200000000000        1.000000000000
 12 H     1 shells
 l=0 nsto= 1
    1       1.200000000000        1.000000000000
 13 H     1 shells
 l=0 nsto= 1
    1       1.200000000000        1.000000000000
 14 H     1 shells
 l=0 nsto= 1
    1       1.200000000000        1.000000000000
 15 C     2 shells
 l=0 nsto= 1
    2       1.625000000000        1.000000000000
 l=1 nsto= 1
    2       1.625000000000        1.000000000000
 16 C     2 shells
 l=0 nsto= 1
    2       1.625000000000        1.000000000000
 l=1 nsto= 1
    2       1.625000000000        1.000000000000
 17 C     2 shells
 l=0 nsto= 1
    2       1.625000000000        1.000000000000
 l=1 nsto= 1
    2       1.625000000000        1.000000000000
 18 H     1 shells
 l=0 nsto= 1
    1       1.200000000000        1.000000000000
 19 H     1 shells
 l=0 nsto= 1
    1       1.200000000000        1.000000000000
 20 H     1 shells
 l=0 nsto= 1
    1       1.200000000000        1.000000000000
 21 H     1 shells
 l=0 nsto= 1
    1       1.200000000000        1.000000000000
 22 H     1 shells
 l=0 nsto= 1
    1       1.200000000000        1.000000000000
 23 H     1 shells
 l=0 nsto= 1
    1       1.200000000000        1.000000000000
 24 H     1 shells
 l=0 nsto= 1
    1       1.200000000000        1.000000000000
 25 C     2 shells
 l=0 nsto= 1
    2       1.625000000000        1.000000000000
 l=1 nsto= 1
    2       1.625000000000        1.000000000000
 26 C     2 shells
 l=0 nsto= 1
    2       1.625000000000        1.000000000000
 l=1 nsto= 1
    2       1.625000000000        1.000000000000
 27 C     2 shells
 l=0 nsto= 1
    2       1.625000000000        1.000000000000
 l=1 nsto= 1
    2       1.625000000000        1.000000000000
 28 C     2 shells
 l=0 nsto= 1
    2       1.625000000000        1.000000000000
 l=1 nsto= 1
    2       1.625000000000        1.000000000000
 29 S     2 shells
 l=0 nsto= 1
    3       1.925000000000        1.000000000000
 l=1 nsto= 1
    3       1.925000000000        1.000000000000
 30 H     1 shells
 l=0 nsto= 1
    1       1.200000000000        1.000000000000
 31 C     2 shells
 l=0 nsto= 1
    2       1.625000000000        1.000000000000
 l=1 nsto= 1
    2       1.625000000000        1.000000000000
 32 C     2 shells
 l=0 nsto= 1
    2       1.625000000000        1.000000000000
 l=1 nsto= 1
    2       1.625000000000        1.000000000000
 33 C     2 shells
 l=0 nsto= 1
    2       1.625000000000        1.000000000000
 l=1 nsto= 1
    2       1.625000000000        1.000000000000
 34 H     1 shells
 l=0 nsto= 1
    1       1.200000000000        1.000000000000
 35 H     1 shells
 l=0 nsto= 1
    1       1.200000000000        1.000000000000
 36 H     1 shells
 l=0 nsto= 1
    1       1.200000000000        1.000000000000
 37 H     1 shells
 l=0 nsto= 1
    1       1.200000000000        1.000000000000
 38 H     1 shells
 l=0 nsto= 1
    1       1.200000000000        1.000000000000
 39 H     1 shells
 l=0 nsto= 1
    1       1.200000000000        1.000000000000
 40 C     2 shells
 l=0 nsto= 1
    2       1.625000000000        1.000000000000
 l=1 nsto= 1
    2       1.625000000000        1.000000000000
 41 C     2 shells
 l=0 nsto= 1
    2       1.625000000000        1.000000000000
 l=1 nsto= 1
    2       1.625000000000        1.000000000000
 42 C     2 shells
 l=0 nsto= 1
    2       1.625000000000        1.000000000000
 l=1 nsto= 1
    2       1.625000000000        1.000000000000
 43 H     1 shells
 l=0 nsto= 1
    1       1.200000000000        1.000000000000
 44 H     1 shells
 l=0 nsto= 1
    1       1.200000000000        1.000000000000
 45 H     1 shells
 l=0 nsto= 1
    1       1.200000000000        1.000000000000
 46 H     1 shells
 l=0 nsto= 1
    1       1.200000000000        1.000000000000
 47 H     1 shells
 l=0 nsto= 1
    1       1.200000000000        1.000000000000
 48 H     1 shells
 l=0 nsto= 1
    1       1.200000000000        1.000000000000
 49 H     1 shells
 l=0 nsto= 1
    1       1.200000000000        1.000000000000
 50 H     1 shells
 l=0 nsto= 1
    1       1.200000000000        1.000000000000
 51 H     1 shells
 l=0 nsto= 1
    1       1.200000000000        1.000000000000
 52 H     1 shells
 l=0 nsto= 1
    1       1.200000000000        1.000000000000
 53 H     1 shells
 l=0 nsto= 1
    1       1.200000000000        1.000000000000
------------------------------------------------------------------------------
                           ORCA NDO INTEGRAL CALCULATION
------------------------------------------------------------------------------

--------------
NDO PARAMETERS
--------------

Gamma integral treatment              ... Mataga-Nishimoto
Nuclear repulsuion treatment          ... Direct (ZA*ZB/RAB)
Interaction factors:
s-s (sigma) =    1.0000
s-p (sigma) =    1.0000
s-d (sigma) =    1.0000
p-p (sigma) =    1.2670  p-p(pi) =    0.5850
p-d (sigma) =    1.0000  p-d(pi) =    1.0000
d-d (sigma) =    1.0000  d-d(pi) =    1.0000 d-d (delta) =    1.0000

fGamma parameter for Mataga-Nishimoto gamma integrals:    1.2000

--------------------------
Parameters for Element H :
--------------------------
 One-electron parameters (in eV)
  U(s)  =   -13.060000 Beta(s) =    12.000000 Neff(s) =     1.000000
 One-center electron repulsion parameters (in eV)
  G(s,s)=    12.850000
--------------------------
Parameters for Element C :
--------------------------
 One-electron parameters (in eV)
  U(s)  =   -50.870766 Beta(s) =    17.000000 Neff(s) =     2.000000
  U(p)  =   -41.599980 Beta(p) =    17.000000 Neff(p) =     2.000000 
 One-center electron repulsion parameters (in eV)
  G(s,s)=    11.110000
  G(s,p)=    11.110000 G(p,p)  =    11.110000
 Slater-Condon parameters (in eV)
 F2(p,p)=     4.5098 G1(s,p)=    6.8977
--------------------------
Parameters for Element S :
--------------------------
 One-electron parameters (in eV)
  U(s)  =   -69.509597 Beta(s) =    15.000000 Neff(s) =     2.000000
  U(p)  =   -60.725746 Beta(p) =    15.000000 Neff(p) =     4.000000 
 One-center electron repulsion parameters (in eV)
  G(s,s)=    10.090000
  G(s,p)=    10.090000 G(p,p)  =    10.090000
 Slater-Condon parameters (in eV)
 F2(p,p)=     4.5377 G1(s,p)=    3.0756

 Number of atoms                    ....   54
 Number of basis functions          ....  120

 Overlap integrals                  .... done
 One electron matrix                .... done
 Nuclear repulsion                  .... done
 Integral list                      .... done
 Electron-electron repulsion        .... done
-------------------------------------------------------------------------------
                                 ORCA SCF
-------------------------------------------------------------------------------

------------
SCF SETTINGS
------------
Hamiltonian:
 ZDO-Hamiltonian        Method          .... INDO


General Settings:
 Integral files         IntName         .... /Users/mattyjones/GoogleDrive/Boise/Code/MorphCT/tests/output_EZ/donor_polymer/chromophores/input_orca/pair/00002-00028
 Hartree-Fock type      HFTyp           .... RHF
 Total Charge           Charge          ....    0
 Multiplicity           Mult            ....    1
 Number of Electrons    NEL             ....  124
 Basis Dimension        Dim             ....  120
 Nuclear Repulsion      ENuc            ....    642.4709339508 Eh

Convergence Acceleration:
 DIIS                   CNVDIIS         .... on
   Start iteration      DIISMaxIt       ....    12
   Startup error        DIISStart       ....  0.200000
   # of expansion vecs  DIISMaxEq       ....     5
   Bias factor          DIISBfac        ....   1.050
   Max. coefficient     DIISMaxC        ....  10.000
 Newton-Raphson         CNVNR           .... off
 SOSCF                  CNVSOSCF        .... on
   Start iteration      SOSCFMaxIt      ....   150
   Startup grad/error   SOSCFStart      ....  0.003300
 Level Shifting         CNVShift        .... on
   Level shift para.    LevelShift      ....    0.2500
   Turn off err/grad.   ShiftErr        ....    0.0010
 Zerner damping         CNVZerner       .... off
 Static damping         CNVDamp         .... on
   Fraction old density DampFac         ....    0.7000
   Max. Damping (<1)    DampMax         ....    0.9800
   Min. Damping (>=0)   DampMin         ....    0.0000
   Turn off err/grad.   DampErr         ....    0.1000
 Fernandez-Rico         CNVRico         .... off

SCF Procedure:
 Maximum # iterations   MaxIter         ....   125
 SCF integral mode      SCFMode         .... Conventional
 Integral Buffer length BufferLength    .... 1048576
 Integral index format  IndFormat       ....     0
 Integral value format  ValFormat       ....     0
 Integral Storage       Thresh          ....  1.000e-08 Eh

Convergence Tolerance:
 Convergence Check Mode ConvCheckMode   .... Total+1el-Energy
 Energy Change          TolE            ....  1.000e-06 Eh
 1-El. energy change                    ....  1.000e-03 Eh
 Orbital Gradient       TolG            ....  5.000e-05
 Orbital Rotation angle TolX            ....  5.000e-05
 DIIS Error             TolErr          ....  1.000e-06


Diagonalization of the overlap matrix:
Smallest eigenvalue                        ... 1.695e-01
Time for diagonalization                   ...    0.003 sec
Threshold for overlap eigenvalues          ... 1.000e-08
Number of eigenvalues below threshold      ... 0
Time for construction of square roots      ...    0.001 sec
Total time needed                          ...    0.004 sec

-------------------------------
INITIAL GUESS: EXTENDED HUECKEL
-------------------------------
EHT matrix was read from disk
EHT matrix was diagonalized
Initial density was built
                      ------------------
                      INITIAL GUESS DONE
                      ------------------

 InCore treatment chosen:
   Memory dedicated               ...    1024 MB
   Memory needed                  ...      0 MB
   Number of tiny    integrals    ...       0
   Number of small   integrals    ...       0
   Number of regular integrals    ...    7392

--------------
SCF ITERATIONS
--------------
ITER       Energy         Delta-E        Max-DP      RMS-DP      [F,P]     Damp
  0    -15.8319628566   0.000000000000 0.04233215  0.00144664  0.1103445 0.7000
  1    -15.8734843816  -0.041521525009 0.04051802  0.00136221  0.0752715 0.7000
                               ***Turning on DIIS***
  2    -15.9042154096  -0.030731028061 0.10448064  0.00349562  0.0458497 0.0000
  3    -15.9837742164  -0.079558806746 0.01874384  0.00072632  0.0216153 0.0000
  4    -15.9700429473   0.013731269069 0.01231491  0.00049700  0.0074804 0.0000
  5    -15.9865724789  -0.016529531565 0.00864900  0.00033678  0.0042714 0.0000
  6    -15.9897527340  -0.003180255144 0.00647804  0.00024009  0.0023640 0.0000
                      *** Initiating the SOSCF procedure ***
                           *** Shutting down DIIS ***
                      *** Re-Reading the Fockian *** 
                      *** Removing any level shift *** 
ITER      Energy       Delta-E        Grad      Rot      Max-DP    RMS-DP
  7    -15.98525773   0.0044950044  0.003033  0.003033  0.003857  0.000135
  8    -15.98310653   0.0021512044  0.000823  0.002281  0.001919  0.000063
  9    -15.98312157  -0.0000150489  0.000369  0.002263  0.002150  0.000067
 10    -15.98312714  -0.0000055632  0.000026  0.000057  0.000114  0.000004
                 **** Energy Check signals convergence ****
              ***Rediagonalizing the Fockian in SOSCF/NRSCF***

               *****************************************************
               *                     SUCCESS                       *
               *           SCF CONVERGED AFTER  11 CYCLES          *
               *****************************************************


----------------
TOTAL SCF ENERGY
----------------

Total Energy       :          -15.98312718 Eh            -434.92300 eV

Components:
Nuclear Repulsion  :          642.47093395 Eh           17482.52291 eV
Electronic Energy  :         -658.45406113 Eh          -17917.44591 eV

One Electron Energy:        -1226.37871493 Eh          -33371.46141 eV
Two Electron Energy:          567.92465380 Eh           15454.01550 eV


---------------
SCF CONVERGENCE
---------------

  Last Energy change         ...   -4.5584e-08  Tolerance :   1.0000e-06
  Last MAX-Density change    ...    3.9077e-05  Tolerance :   1.0000e-05
  Last RMS-Density change    ...    1.1637e-06  Tolerance :   1.0000e-06
  Last Orbital Gradient      ...    7.3656e-06  Tolerance :   5.0000e-05
  Last Orbital Rotation      ...    2.0295e-05  Tolerance :   5.0000e-05

             **** THE GBW FILE WAS UPDATED (/Users/mattyjones/GoogleDrive/Boise/Code/MorphCT/tests/output_EZ/donor_polymer/chromophores/input_orca/pair/00002-00028.gbw) ****
             **** DENSITY FILE WAS UPDATED (/Users/mattyjones/GoogleDrive/Boise/Code/MorphCT/tests/output_EZ/donor_polymer/chromophores/input_orca/pair/00002-00028.scfp.tmp) ****
             **** ENERGY FILE WAS UPDATED (/Users/mattyjones/GoogleDrive/Boise/Code/MorphCT/tests/output_EZ/donor_polymer/chromophores/input_orca/pair/00002-00028.en.tmp) ****
----------------
ORBITAL ENERGIES
----------------

  NO   OCC          E(Eh)            E(eV) 
   0   2.0000      -1.566759       -42.6337 
   1   2.0000      -1.557130       -42.3717 
   2   2.0000      -1.424190       -38.7542 
   3   2.0000      -1.407603       -38.3028 
   4   2.0000      -1.299340       -35.3568 
   5   2.0000      -1.294633       -35.2287 
   6   2.0000      -1.177029       -32.0286 
   7   2.0000      -1.168038       -31.7839 
   8   2.0000      -1.112139       -30.2628 
   9   2.0000      -1.109729       -30.1973 
  10   2.0000      -1.032859       -28.1055 
  11   2.0000      -1.030940       -28.0533 
  12   2.0000      -0.986409       -26.8416 
  13   2.0000      -0.961308       -26.1585 
  14   2.0000      -0.908965       -24.7342 
  15   2.0000      -0.903657       -24.5898 
  16   2.0000      -0.865566       -23.5532 
  17   2.0000      -0.847649       -23.0657 
  18   2.0000      -0.832744       -22.6601 
  19   2.0000      -0.821914       -22.3654 
  20   2.0000      -0.785122       -21.3643 
  21   2.0000      -0.773495       -21.0479 
  22   2.0000      -0.736664       -20.0457 
  23   2.0000      -0.730809       -19.8863 
  24   2.0000      -0.709562       -19.3082 
  25   2.0000      -0.690859       -18.7992 
  26   2.0000      -0.683575       -18.6010 
  27   2.0000      -0.676120       -18.3982 
  28   2.0000      -0.638611       -17.3775 
  29   2.0000      -0.627513       -17.0755 
  30   2.0000      -0.613948       -16.7064 
  31   2.0000      -0.609752       -16.5922 
  32   2.0000      -0.597019       -16.2457 
  33   2.0000      -0.588913       -16.0251 
  34   2.0000      -0.576559       -15.6890 
  35   2.0000      -0.576352       -15.6833 
  36   2.0000      -0.567012       -15.4292 
  37   2.0000      -0.566937       -15.4271 
  38   2.0000      -0.555676       -15.1207 
  39   2.0000      -0.553651       -15.0656 
  40   2.0000      -0.534874       -14.5547 
  41   2.0000      -0.533675       -14.5220 
  42   2.0000      -0.527630       -14.3575 
  43   2.0000      -0.521539       -14.1918 
  44   2.0000      -0.510329       -13.8867 
  45   2.0000      -0.508571       -13.8389 
  46   2.0000      -0.496002       -13.4969 
  47   2.0000      -0.493347       -13.4247 
  48   2.0000      -0.490572       -13.3491 
  49   2.0000      -0.488972       -13.3056 
  50   2.0000      -0.478452       -13.0193 
  51   2.0000      -0.472671       -12.8620 
  52   2.0000      -0.471515       -12.8306 
  53   2.0000      -0.469204       -12.7677 
  54   2.0000      -0.457381       -12.4460 
  55   2.0000      -0.446834       -12.1590 
  56   2.0000      -0.440481       -11.9861 
  57   2.0000      -0.437010       -11.8917 
  58   2.0000      -0.357141        -9.7183 
  59   2.0000      -0.352947        -9.6042 
  60   2.0000      -0.304595        -8.2884 
  61   2.0000      -0.304233        -8.2786 
  62   0.0000       0.007812         0.2126 
  63   0.0000       0.008101         0.2204 
  64   0.0000       0.068186         1.8554 
  65   0.0000       0.072343         1.9685 
  66   0.0000       0.075917         2.0658 
  67   0.0000       0.084286         2.2936 
  68   0.0000       0.089269         2.4291 
  69   0.0000       0.091142         2.4801 
  70   0.0000       0.105369         2.8672 
  71   0.0000       0.105997         2.8843 
  72   0.0000       0.107666         2.9298 
  73   0.0000       0.108654         2.9566 
  74   0.0000       0.121224         3.2987 
  75   0.0000       0.124419         3.3856 
  76   0.0000       0.138942         3.7808 
  77   0.0000       0.144215         3.9243 
  78   0.0000       0.154825         4.2130 
  79   0.0000       0.155900         4.2423 
  80   0.0000       0.163312         4.4439 
  81   0.0000       0.165126         4.4933 
  82   0.0000       0.172067         4.6822 
  83   0.0000       0.172190         4.6855 
  84   0.0000       0.204933         5.5765 
  85   0.0000       0.208676         5.6784 
  86   0.0000       0.233019         6.3408 
  87   0.0000       0.233780         6.3615 
  88   0.0000       0.234281         6.3751 
  89   0.0000       0.236367         6.4319 
  90   0.0000       0.236534         6.4364 
  91   0.0000       0.238476         6.4893 
  92   0.0000       0.239513         6.5175 
  93   0.0000       0.239540         6.5182 
  94   0.0000       0.242054         6.5866 
  95   0.0000       0.242889         6.6094 
  96   0.0000       0.243958         6.6384 
  97   0.0000       0.244432         6.6513 
  98   0.0000       0.246297         6.7021 
  99   0.0000       0.246852         6.7172 
 100   0.0000       0.257802         7.0152 
 101   0.0000       0.260629         7.0921 
 102   0.0000       0.264694         7.2027 
 103   0.0000       0.266801         7.2600 
 104   0.0000       0.268791         7.3142 
 105   0.0000       0.269847         7.3429 
 106   0.0000       0.275278         7.4907 
 107   0.0000       0.284851         7.7512 
 108   0.0000       0.301132         8.1942 
 109   0.0000       0.301225         8.1967 
 110   0.0000       0.310251         8.4424 
 111   0.0000       0.310815         8.4577 
 112   0.0000       0.341457         9.2915 
 113   0.0000       0.343088         9.3359 
 114   0.0000       0.346493         9.4286 
 115   0.0000       0.353694         9.6245 
 116   0.0000       0.410839        11.1795 
 117   0.0000       0.417437        11.3590 
 118   0.0000       0.429209        11.6794 
 119   0.0000       0.430737        11.7210 
-------
TIMINGS
-------

Total SCF time: 0 days 0 hours 0 min 0 sec 

Total time                  ....       0.125 sec
Sum of individual times     ....       0.100 sec  ( 80.4%)

Fock matrix formation       ....       0.050 sec  ( 39.9%)
Diagonalization             ....       0.024 sec  ( 19.6%)
Density matrix formation    ....       0.005 sec  (  4.3%)
Population analysis         ....       0.000 sec  (  0.0%)
Initial guess               ....       0.003 sec  (  2.4%)
Orbital Transformation      ....       0.000 sec  (  0.0%)
Orbital Orthonormalization  ....       0.000 sec  (  0.0%)
DIIS solution               ....       0.012 sec  (  9.7%)
SOSCF solution              ....       0.006 sec  (  4.5%)

-------------------------   --------------------
FINAL SINGLE POINT ENERGY       -15.983127182937
-------------------------   --------------------


                            ***************************************
                            *     ORCA property calculations      *
                            ***************************************

                                    ---------------------
                                    Active property flags
                                    ---------------------
   (+) Dipole Moment


------------------------------------------------------------------------------
                       ORCA ELECTRIC PROPERTIES CALCULATION
------------------------------------------------------------------------------

Dipole Moment Calculation                       ... on
Quadrupole Moment Calculation                   ... off
Polarizability Calculation                      ... off
GBWName                                         ... /Users/mattyjones/GoogleDrive/Boise/Code/MorphCT/tests/output_EZ/donor_polymer/chromophores/input_orca/pair/00002-00028.gbw
Electron density file                           ... /Users/mattyjones/GoogleDrive/Boise/Code/MorphCT/tests/output_EZ/donor_polymer/chromophores/input_orca/pair/00002-00028.scfp.tmp

-------------
DIPOLE MOMENT
-------------
                                X             Y             Z
Electronic contribution:     -4.31450     -25.93666      32.35720
Nuclear contribution   :      3.98673      14.83499     -16.64260
                        -----------------------------------------
Total Dipole Moment    :     -0.32777     -11.10167      15.71461
                        -----------------------------------------
Magnitude (a.u.)       :     19.24327
Magnitude (Debye)      :     48.91250


Timings for individual modules:

Sum of individual times         ...        0.204 sec (=   0.003 min)
STO integral calculation        ...        0.041 sec (=   0.001 min)  20.2 %
SCF iterations                  ...        0.163 sec (=   0.003 min)  79.8 %
                             ****ORCA TERMINATED NORMALLY****
TOTAL RUN TIME: 0 days 0 hours 0 minutes 0 seconds 522 msec

