
                                 *****************
                                 * O   R   C   A *
                                 *****************

           --- An Ab Initio, DFT and Semiempirical electronic structure package ---

                  #######################################################
                  #                        -***-                        #
                  #  Department of molecular theory and spectroscopy    #
                  #              Directorship: Frank Neese              #
                  # Max Planck Institute for Chemical Energy Conversion #
                  #                  D-45470 Muelheim/Ruhr              #
                  #                       Germany                       #
                  #                                                     #
                  #                  All rights reserved                #
                  #                        -***-                        #
                  #######################################################


                         Program Version 3.0.3 - RELEASE   -


 With contributions from (in alphabetic order):
   Ute Becker             : Parallelization
   Dmytro Bykov           : SCF Hessian
   Dmitry Ganyushin       : Spin-Orbit,Spin-Spin,Magnetic field MRCI
   Andreas Hansen         : Spin unrestricted coupled pair/coupled cluster methods
   Dimitrios Liakos       : Extrapolation schemes; parallel MDCI
   Robert Izsak           : Overlap fitted RIJCOSX, COSX-SCS-MP3
   Christian Kollmar      : KDIIS, OOCD, Brueckner-CCSD(T), CCSD density
   Simone Kossmann        : Meta GGA functionals, TD-DFT gradient, OOMP2, MP2 Hessian
   Taras Petrenko         : DFT Hessian,TD-DFT gradient, ASA and ECA modules, normal mode analysis, Resonance Raman, ABS, FL, XAS/XES, NRVS
   Christoph Reimann      : Effective Core Potentials
   Michael Roemelt        : Restricted open shell CIS
   Christoph Riplinger    : Improved optimizer, TS searches, QM/MM, DLPNO-CCSD
   Barbara Sandhoefer     : DKH picture change effects
   Igor Schapiro          : Molecular dynamics
   Kantharuban Sivalingam : CASSCF convergence, NEVPT2
   Boris Wezisla          : Elementary symmetry handling
   Frank Wennmohs         : Technical directorship


 We gratefully acknowledge several colleagues who have allowed us to
 interface, adapt or use parts of their codes:
   Stefan Grimme, W. Hujo, H. Kruse, T. Risthaus : VdW corrections, initial TS optimization,
                                                   DFT functionals, gCP
   Ed Valeev                                     : LibInt (2-el integral package), F12 methods
   Garnet Chan, S. Sharma, R. Olivares           : DMRG
   Ulf Ekstrom                                   : XCFun DFT Library
   Mihaly Kallay                                 : mrcc  (arbitrary order and MRCC methods)
   Andreas Klamt, Michael Diedenhofen            : otool_cosmo (COSMO solvation model)
   Frank Weinhold                                : gennbo (NPA and NBO analysis)
   Christopher J. Cramer and Donald G. Truhlar   : smd solvation model


 Your calculation uses the libint2 library for the computation of 2-el integrals
 For citations please refer to: http://libint.valeyev.net

 This ORCA versions uses:
   CBLAS   interface :  Fast vector & matrix operations
   LAPACKE interface :  Fast linear algebra routines
   SCALAPACK package :  Parallel linear algebra routines


leaving
================================================================================
                                        WARNINGS
                       Please study these warnings very carefully!
================================================================================
Now building the actual basis set

WARNING: Direct SCF is incompatible with Method<>HF and Method<>DFT
  ===> : conventional SCF is chosen

WARNING: The NDO methods need Guess=HUECKEL or Guess=HCORE or Guess=MOREAD
  ===> : Guess is set to Hueckel

WARNING: The NDO methods need %rel::SOCType==1
  ===> : %rel::SOCType is set to 1

WARNING: The NDO methods cannot have frozencore=1
  ===> : %method FrozenCore=0 end


INFO   : the flag for use of LIBINT has been found!

================================================================================
                                       INPUT FILE
================================================================================
NAME = /Users/mattyjones/GoogleDrive/Boise/Code/MorphCT/tests/output_EZ/donor_polymer/chromophores/input_orca/pair/00004-00022.inp
|  1> # ================================================================
|  2> # Orca input file made by Matty Jones
|  3> # ================================================================
|  4> ! ZINDO/S 
|  5> ! NOPOP
|  6> ! NOMOPRINT
|  7> * xyz 0   1
|  8>  C  -23.57251  3.68670  -5.21741
|  9>  C  -24.17027  2.47907  -5.58102
| 10>  C  -23.66852  1.34276  -4.87300
| 11>  C  -22.66951  1.65470  -3.94563
| 12>  S  -22.46252  3.29691  -4.04906
| 13>  H  -24.99888  2.37258  -6.35914
| 14>  C  -24.26921  -0.13711  -5.16026
| 15>  C  -25.95849  -0.43065  -4.97666
| 16>  C  -27.38237  -0.31903  -5.93583
| 17>  H  -28.07448  -1.14279  -5.48990
| 18>  H  -27.82931  0.70983  -5.62616
| 19>  H  -25.97497  -1.54714  -4.65736
| 20>  H  -26.22567  0.21519  -4.05041
| 21>  H  -23.73274  -0.95305  -4.53542
| 22>  H  -24.06647  -0.38945  -6.28685
| 23>  C  -27.53835  -0.41328  -7.55665
| 24>  C  -28.03351  -1.91513  -8.18002
| 25>  C  -29.70368  -2.13405  -8.31402
| 26>  H  -29.92752  -3.26027  -8.46118
| 27>  H  -30.09711  -1.53893  -9.22445
| 28>  H  -30.21973  -1.75844  -7.34926
| 29>  H  -27.58509  -2.01838  -9.23648
| 30>  H  -27.61694  -2.74376  -7.49860
| 31>  H  -28.32344  0.36408  -7.90389
| 32>  H  -26.52414  -0.15827  -8.04919
| 33>  C  23.62131  -3.31560  4.52006
| 34>  C  24.46694  -2.33524  5.04131
| 35>  C  23.81308  -1.39537  5.89765
| 36>  C  22.44423  -1.63475  6.05338
| 37>  S  22.11954  -2.97781  5.13625
| 38>  H  25.58795  -2.28749  4.82720
| 39>  C  24.60881  -0.18906  6.59974
| 40>  C  25.67242  0.68222  5.61662
| 41>  C  26.35426  1.98871  6.44452
| 42>  H  25.49397  2.50393  7.02569
| 43>  H  26.73432  2.72737  5.63598
| 44>  H  26.51689  -0.01809  5.27139
| 45>  H  25.09168  1.08063  4.70749
| 46>  H  23.91981  0.62696  7.02518
| 47>  H  25.24176  -0.61727  7.48472
| 48>  C  27.56695  1.67316  7.47979
| 49>  C  29.11413  1.56122  6.81895
| 50>  C  29.56765  -0.02033  6.46597
| 51>  H  30.60830  -0.22644  6.93017
| 52>  H  29.62016  -0.15842  5.31845
| 53>  H  28.79653  -0.76086  6.90883
| 54>  H  29.14323  2.17507  5.84411
| 55>  H  29.86550  2.00064  7.57363
| 56>  H  27.34555  0.68212  8.03521
| 57>  H  27.60523  2.52416  8.26801
| 58>  H  -23.78364  4.64995  -5.60621
| 59>  H  -22.15272  0.98231  -3.30969
| 60>  H  23.88380  -4.10884  3.86778
| 61>  H  21.75782  -1.07498  6.63570
| 62> *
| 63> 
| 64>                          ****END OF INPUT****
================================================================================

                       ****************************
                       * Single Point Calculation *
                       ****************************

---------------------------------
CARTESIAN COORDINATES (ANGSTROEM)
---------------------------------
  C    -23.572510    3.686700   -5.217410
  C    -24.170270    2.479070   -5.581020
  C    -23.668520    1.342760   -4.873000
  C    -22.669510    1.654700   -3.945630
  S    -22.462520    3.296910   -4.049060
  H    -24.998880    2.372580   -6.359140
  C    -24.269210   -0.137110   -5.160260
  C    -25.958490   -0.430650   -4.976660
  C    -27.382370   -0.319030   -5.935830
  H    -28.074480   -1.142790   -5.489900
  H    -27.829310    0.709830   -5.626160
  H    -25.974970   -1.547140   -4.657360
  H    -26.225670    0.215190   -4.050410
  H    -23.732740   -0.953050   -4.535420
  H    -24.066470   -0.389450   -6.286850
  C    -27.538350   -0.413280   -7.556650
  C    -28.033510   -1.915130   -8.180020
  C    -29.703680   -2.134050   -8.314020
  H    -29.927520   -3.260270   -8.461180
  H    -30.097110   -1.538930   -9.224450
  H    -30.219730   -1.758440   -7.349260
  H    -27.585090   -2.018380   -9.236480
  H    -27.616940   -2.743760   -7.498600
  H    -28.323440    0.364080   -7.903890
  H    -26.524140   -0.158270   -8.049190
  C     23.621310   -3.315600    4.520060
  C     24.466940   -2.335240    5.041310
  C     23.813080   -1.395370    5.897650
  C     22.444230   -1.634750    6.053380
  S     22.119540   -2.977810    5.136250
  H     25.587950   -2.287490    4.827200
  C     24.608810   -0.189060    6.599740
  C     25.672420    0.682220    5.616620
  C     26.354260    1.988710    6.444520
  H     25.493970    2.503930    7.025690
  H     26.734320    2.727370    5.635980
  H     26.516890   -0.018090    5.271390
  H     25.091680    1.080630    4.707490
  H     23.919810    0.626960    7.025180
  H     25.241760   -0.617270    7.484720
  C     27.566950    1.673160    7.479790
  C     29.114130    1.561220    6.818950
  C     29.567650   -0.020330    6.465970
  H     30.608300   -0.226440    6.930170
  H     29.620160   -0.158420    5.318450
  H     28.796530   -0.760860    6.908830
  H     29.143230    2.175070    5.844110
  H     29.865500    2.000640    7.573630
  H     27.345550    0.682120    8.035210
  H     27.605230    2.524160    8.268010
  H    -23.783640    4.649950   -5.606210
  H    -22.152720    0.982310   -3.309690
  H     23.883800   -4.108840    3.867780
  H     21.757820   -1.074980    6.635700

----------------------------
CARTESIAN COORDINATES (A.U.)
----------------------------
  NO LB      ZA    FRAG    MASS        X           Y           Z
   0 C     4.0000    0    12.011        -44.545588189120046          6.966853337927478         -9.859476028382078
   1 C     4.0000    0    12.011        -45.675190882932810          4.684763366820158        -10.546599347937184
   2 C     4.0000    0    12.011        -44.727020795237827          2.537448663584100         -9.208635450598260
   3 C     4.0000    0    12.011        -42.839165490189153          3.126929833799495         -7.456160125783708
   4 S     6.0000    0    32.060        -42.448011077728793          6.230256988186314         -7.651614499815183
   5 H     1.0000    0     1.008        -47.241036854761298          4.483526430818883        -12.017033047263988
   6 C     4.0000    0    12.011        -45.862160386622982         -0.259100350221943         -9.751478179828478
   7 C     4.0000    0    12.011        -49.054436950133471         -0.813810559573187         -9.404524461640536
   8 C     4.0000    0    12.011        -51.745180197701266         -0.602879328504897        -11.217093077513784
   9 H     1.0000    0     1.008        -53.053078552249502         -2.159560128583867        -10.374407502614279
  10 H     1.0000    0     1.008        -52.589774395996024          1.341384301641322        -10.631901585622389
  11 H     1.0000    0     1.008        -49.085579636820491         -2.923670890834925         -8.801134907079479
  12 H     1.0000    0     1.008        -49.559333978594552          0.406650166758514         -7.654165630095977
  13 H     1.0000    0     1.008        -44.848379007558243         -1.801003491933649         -8.570701702309124
  14 H     1.0000    0     1.008        -45.479037310231782         -0.735953842855631        -11.880424745042822
  15 C     4.0000    0    12.011        -52.039939680070304         -0.780986016626975        -14.279998989896027
  16 C     4.0000    0    12.011        -52.975656472542745         -3.619071210856607        -15.457997569998518
  17 C     4.0000    0    12.011        -56.131820369633999         -4.032770056094646        -15.711220871943963
  18 H     1.0000    0     1.008        -56.554816667450943         -6.161017422639438        -15.989312969811817
  19 H     1.0000    0     1.008        -56.875295322502645         -2.908156239275431        -17.431684236049890
  20 H     1.0000    0     1.008        -57.107013541044061         -3.322970022932486        -13.888088686982098
  21 H     1.0000    0     1.008        -52.128265479569784         -3.814185434183976        -17.454417641440962
  22 H     1.0000    0     1.008        -52.188453256935169         -5.184954977207774        -14.170300387821896
  23 H     1.0000    0     1.008        -53.523544770550536          0.688011490838049        -14.936187492638840
  24 H     1.0000    0     1.008        -50.123360537786027         -0.299086955215716        -15.210764699897599
  25 C     4.0000    0    12.011         44.637806824455403         -6.265575969629301          8.541675508892093
  26 C     4.0000    0    12.011         46.235815935083231         -4.412964056978264          9.526695256198545
  27 C     4.0000    0    12.011         45.000199605157476         -2.636867155489697         11.144943333720668
  28 C     4.0000    0    12.011         42.413447986739378         -3.089229797427766         11.439230384556225
  29 S     6.0000    0    32.060         41.799872808316486         -5.627245378852042          9.706105855353030
  30 H     1.0000    0     1.008         48.354217828470290         -4.322729634083524          9.122085993664667
  31 C     4.0000    0    12.011         46.503911381702636         -0.357271622879152         12.471701155085441
  32 C     4.0000    0    12.011         48.513842995002619          1.289208963083756         10.613873598304782
  33 C     4.0000    0    12.011         49.802333862155486          3.758117259790532         12.178377864578184
  34 H     1.0000    0     1.008         48.176621366404376          4.731741958509439         13.276630001829199
  35 H     1.0000    0     1.008         50.520543176613600          5.153982365872804         10.650458696257497
  36 H     1.0000    0     1.008         50.109660023315101         -0.034185145762635          9.961483445091147
  37 H     1.0000    0     1.008         47.416403439989189          2.042094752099322          8.895866878172953
  38 H     1.0000    0     1.008         45.201890075430889          1.184782696923268         13.275666241500899
  39 H     1.0000    0     1.008         47.700013538168093         -1.166471250685571         14.144070989083071
  40 C     4.0000    0    12.011         52.093985847500448          3.161814178231682         14.134754639242839
  41 C     4.0000    0    12.011         55.017732327380727          2.950278234800537         12.885948020902319
  42 C     4.0000    0    12.011         55.874760923636700         -0.038418132302619         12.218912490150796
  43 H     1.0000    0     1.008         57.841304424901850         -0.427909585765128         13.096123361517041
  44 H     1.0000    0     1.008         55.973990442928901         -0.299370414135805         10.050413956953481
  45 H     1.0000    0     1.008         54.417555307247341         -1.437817026255324         13.055796605819161
  46 H     1.0000    0     1.008         55.072723357877834          4.110286622108097         11.043767396510525
  47 H     1.0000    0     1.008         56.437615852625143          3.780661692568213         14.312086539650009
  48 H     1.0000    0     1.008         51.675600481450282          1.289019990470364         15.184346328545379
  49 H     1.0000    0     1.008         52.166324563906954          4.769971118198667         15.624274572522248
  50 H     1.0000    0     1.008        -44.944566067774836          8.787132036427124        -10.594201549250661
  51 H     1.0000    0     1.008        -41.862573921439989          1.856296878612185         -6.254407688177827
  52 H     1.0000    0     1.008         45.133841037348390         -7.764582328100995          7.309044946257939
  53 H     1.0000    0     1.008         41.116321071154488         -2.031417799442667         12.539655706861250

--------------------------------
INTERNAL COORDINATES (ANGSTROEM)
--------------------------------
 C      0   0   0   0.000000     0.000     0.000
 C      1   0   0   1.395672     0.000     0.000
 C      2   1   0   1.429771   114.102     0.000
 C      3   2   1   1.398336   113.693     0.000
 S      1   2   3   1.658028   105.480     0.000
 H      2   1   3   1.141668   124.689   179.156
 C      3   2   1   1.622764   120.478   179.184
 C      7   3   2   1.724396   119.935   303.193
 C      8   7   3   1.720436   137.763    87.681
 H      9   8   7   1.164667   103.443   150.891
 H      9   8   7   1.163703   103.113   262.442
 H      8   7   3   1.161367   101.936   210.561
 H      8   7   3   1.160359   102.463   322.503
 H      7   3   2   1.159303   112.033   177.969
 H      7   3   2   1.172171   107.604    61.056
 C      9   8   7   1.631034   129.008    26.296
 C     16   9   8   1.699802   116.318    99.018
 C     17  16   9   1.689778   115.561    89.257
 H     18  17  16   1.157641   109.101   195.535
 H     18  17  16   1.156649   109.388    75.707
 H     18  17  16   1.156785   109.434   315.459
 H     17  16   9   1.152323   107.580   209.306
 H     17  16   9   1.150866   108.275   327.824
 H     16   9   8   1.158115   108.905   219.430
 H     16   9   8   1.155962   109.073   337.797
 C      4   3   2  47.320311   142.570   249.351
 C     26   4   3   1.395671   125.856   139.059
 C     27  26   4   1.429758   114.101    28.778
 C     28  27  26   1.398322   113.694     0.000
 S     26   4   3   1.658043    32.759   198.086
 H     27  26   4   1.142273   123.640   207.665
 C     28  27  26   1.606643   121.924   179.964
 C     32  28  27   1.690243   116.393    45.557
 C     33  32  28   1.690337   111.554   175.745
 H     34  33  32   1.159012   106.844   315.604
 H     34  33  32   1.159224   106.448   200.331
 H     33  32  28   1.150108   108.830   295.738
 H     33  32  28   1.150003   108.701    55.713
 H     32  28  27   1.149612   113.443   164.949
 H     32  28  27   1.169264   108.898   284.883
 C     34  33  32   1.625415   117.572    78.023
 C     41  34  33   1.686122   116.606    84.175
 C     42  41  34   1.682729   113.074   264.810
 H     43  42  41   1.157979   108.990   230.632
 H     43  42  41   1.156991   109.418   110.791
 H     43  42  41   1.157210   109.973   350.508
 H     42  41  34   1.152377   108.624    25.239
 H     42  41  34   1.152037   108.445   144.220
 H     41  34  33   1.157441   109.217   321.632
 H     41  34  33   1.160585   108.351   204.275
 H      1   2   3   1.059996   127.260   180.001
 H      4   3   2   1.060000   127.206   180.000
 H     26   4   3   1.060000   102.167   342.136
 H     29  28  27   1.059999   127.206   180.001

---------------------------
INTERNAL COORDINATES (A.U.)
---------------------------
 C      0   0   0   0.000000     0.000     0.000
 C      1   0   0   2.637437     0.000     0.000
 C      2   1   0   2.701876   114.102     0.000
 C      3   2   1   2.642471   113.693     0.000
 S      1   2   3   3.133218   105.480     0.000
 H      2   1   3   2.157439   124.689   179.156
 C      3   2   1   3.066579   120.478   179.184
 C      7   3   2   3.258636   119.935   303.193
 C      8   7   3   3.251153   137.763    87.681
 H      9   8   7   2.200903   103.443   150.891
 H      9   8   7   2.199079   103.113   262.442
 H      8   7   3   2.194666   101.936   210.561
 H      8   7   3   2.192761   102.463   322.503
 H      7   3   2   2.190765   112.033   177.969
 H      7   3   2   2.215081   107.604    61.056
 C      9   8   7   3.082207   129.008    26.296
 C     16   9   8   3.212160   116.318    99.018
 C     17  16   9   3.193218   115.561    89.257
 H     18  17  16   2.187624   109.101   195.535
 H     18  17  16   2.185751   109.388    75.707
 H     18  17  16   2.186007   109.434   315.459
 H     17  16   9   2.177575   107.580   209.306
 H     17  16   9   2.174821   108.275   327.824
 H     16   9   8   2.188520   108.905   219.430
 H     16   9   8   2.184451   109.073   337.797
 C      4   3   2  89.422428   142.570   249.351
 C     26   4   3   2.637436   125.856   139.059
 C     27  26   4   2.701850   114.101    28.778
 C     28  27  26   2.642446   113.694     0.000
 S     26   4   3   3.133246    32.759   198.086
 H     27  26   4   2.158582   123.640   207.665
 C     28  27  26   3.036114   121.924   179.964
 C     32  28  27   3.194096   116.393    45.557
 C     33  32  28   3.194275   111.554   175.745
 H     34  33  32   2.190215   106.844   315.604
 H     34  33  32   2.190617   106.448   200.331
 H     33  32  28   2.173388   108.830   295.738
 H     33  32  28   2.173191   108.701    55.713
 H     32  28  27   2.172453   113.443   164.949
 H     32  28  27   2.209589   108.898   284.883
 C     34  33  32   3.071589   117.572    78.023
 C     41  34  33   3.186308   116.606    84.175
 C     42  41  34   3.179896   113.074   264.810
 H     43  42  41   2.188263   108.990   230.632
 H     43  42  41   2.186396   109.418   110.791
 H     43  42  41   2.186811   109.973   350.508
 H     42  41  34   2.177676   108.624    25.239
 H     42  41  34   2.177034   108.445   144.220
 H     41  34  33   2.187246   109.217   321.632
 H     41  34  33   2.193187   108.351   204.275
 H      1   2   3   2.003102   127.260   180.001
 H      4   3   2   2.003110   127.206   180.000
 H     26   4   3   2.003110   102.167   342.136
 H     29  28  27   2.003108   127.206   180.001

----------------------------
SLATER BASIS SET DIM= 120
----------------------------
  0 C     2 shells
 l=0 nsto= 1
    2       1.625000000000        1.000000000000
 l=1 nsto= 1
    2       1.625000000000        1.000000000000
  1 C     2 shells
 l=0 nsto= 1
    2       1.625000000000        1.000000000000
 l=1 nsto= 1
    2       1.625000000000        1.000000000000
  2 C     2 shells
 l=0 nsto= 1
    2       1.625000000000        1.000000000000
 l=1 nsto= 1
    2       1.625000000000        1.000000000000
  3 C     2 shells
 l=0 nsto= 1
    2       1.625000000000        1.000000000000
 l=1 nsto= 1
    2       1.625000000000        1.000000000000
  4 S     2 shells
 l=0 nsto= 1
    3       1.925000000000        1.000000000000
 l=1 nsto= 1
    3       1.925000000000        1.000000000000
  5 H     1 shells
 l=0 nsto= 1
    1       1.200000000000        1.000000000000
  6 C     2 shells
 l=0 nsto= 1
    2       1.625000000000        1.000000000000
 l=1 nsto= 1
    2       1.625000000000        1.000000000000
  7 C     2 shells
 l=0 nsto= 1
    2       1.625000000000        1.000000000000
 l=1 nsto= 1
    2       1.625000000000        1.000000000000
  8 C     2 shells
 l=0 nsto= 1
    2       1.625000000000        1.000000000000
 l=1 nsto= 1
    2       1.625000000000        1.000000000000
  9 H     1 shells
 l=0 nsto= 1
    1       1.200000000000        1.000000000000
 10 H     1 shells
 l=0 nsto= 1
    1       1.200000000000        1.000000000000
 11 H     1 shells
 l=0 nsto= 1
    1       1.200000000000        1.000000000000
 12 H     1 shells
 l=0 nsto= 1
    1       1.200000000000        1.000000000000
 13 H     1 shells
 l=0 nsto= 1
    1       1.200000000000        1.000000000000
 14 H     1 shells
 l=0 nsto= 1
    1       1.200000000000        1.000000000000
 15 C     2 shells
 l=0 nsto= 1
    2       1.625000000000        1.000000000000
 l=1 nsto= 1
    2       1.625000000000        1.000000000000
 16 C     2 shells
 l=0 nsto= 1
    2       1.625000000000        1.000000000000
 l=1 nsto= 1
    2       1.625000000000        1.000000000000
 17 C     2 shells
 l=0 nsto= 1
    2       1.625000000000        1.000000000000
 l=1 nsto= 1
    2       1.625000000000        1.000000000000
 18 H     1 shells
 l=0 nsto= 1
    1       1.200000000000        1.000000000000
 19 H     1 shells
 l=0 nsto= 1
    1       1.200000000000        1.000000000000
 20 H     1 shells
 l=0 nsto= 1
    1       1.200000000000        1.000000000000
 21 H     1 shells
 l=0 nsto= 1
    1       1.200000000000        1.000000000000
 22 H     1 shells
 l=0 nsto= 1
    1       1.200000000000        1.000000000000
 23 H     1 shells
 l=0 nsto= 1
    1       1.200000000000        1.000000000000
 24 H     1 shells
 l=0 nsto= 1
    1       1.200000000000        1.000000000000
 25 C     2 shells
 l=0 nsto= 1
    2       1.625000000000        1.000000000000
 l=1 nsto= 1
    2       1.625000000000        1.000000000000
 26 C     2 shells
 l=0 nsto= 1
    2       1.625000000000        1.000000000000
 l=1 nsto= 1
    2       1.625000000000        1.000000000000
 27 C     2 shells
 l=0 nsto= 1
    2       1.625000000000        1.000000000000
 l=1 nsto= 1
    2       1.625000000000        1.000000000000
 28 C     2 shells
 l=0 nsto= 1
    2       1.625000000000        1.000000000000
 l=1 nsto= 1
    2       1.625000000000        1.000000000000
 29 S     2 shells
 l=0 nsto= 1
    3       1.925000000000        1.000000000000
 l=1 nsto= 1
    3       1.925000000000        1.000000000000
 30 H     1 shells
 l=0 nsto= 1
    1       1.200000000000        1.000000000000
 31 C     2 shells
 l=0 nsto= 1
    2       1.625000000000        1.000000000000
 l=1 nsto= 1
    2       1.625000000000        1.000000000000
 32 C     2 shells
 l=0 nsto= 1
    2       1.625000000000        1.000000000000
 l=1 nsto= 1
    2       1.625000000000        1.000000000000
 33 C     2 shells
 l=0 nsto= 1
    2       1.625000000000        1.000000000000
 l=1 nsto= 1
    2       1.625000000000        1.000000000000
 34 H     1 shells
 l=0 nsto= 1
    1       1.200000000000        1.000000000000
 35 H     1 shells
 l=0 nsto= 1
    1       1.200000000000        1.000000000000
 36 H     1 shells
 l=0 nsto= 1
    1       1.200000000000        1.000000000000
 37 H     1 shells
 l=0 nsto= 1
    1       1.200000000000        1.000000000000
 38 H     1 shells
 l=0 nsto= 1
    1       1.200000000000        1.000000000000
 39 H     1 shells
 l=0 nsto= 1
    1       1.200000000000        1.000000000000
 40 C     2 shells
 l=0 nsto= 1
    2       1.625000000000        1.000000000000
 l=1 nsto= 1
    2       1.625000000000        1.000000000000
 41 C     2 shells
 l=0 nsto= 1
    2       1.625000000000        1.000000000000
 l=1 nsto= 1
    2       1.625000000000        1.000000000000
 42 C     2 shells
 l=0 nsto= 1
    2       1.625000000000        1.000000000000
 l=1 nsto= 1
    2       1.625000000000        1.000000000000
 43 H     1 shells
 l=0 nsto= 1
    1       1.200000000000        1.000000000000
 44 H     1 shells
 l=0 nsto= 1
    1       1.200000000000        1.000000000000
 45 H     1 shells
 l=0 nsto= 1
    1       1.200000000000        1.000000000000
 46 H     1 shells
 l=0 nsto= 1
    1       1.200000000000        1.000000000000
 47 H     1 shells
 l=0 nsto= 1
    1       1.200000000000        1.000000000000
 48 H     1 shells
 l=0 nsto= 1
    1       1.200000000000        1.000000000000
 49 H     1 shells
 l=0 nsto= 1
    1       1.200000000000        1.000000000000
 50 H     1 shells
 l=0 nsto= 1
    1       1.200000000000        1.000000000000
 51 H     1 shells
 l=0 nsto= 1
    1       1.200000000000        1.000000000000
 52 H     1 shells
 l=0 nsto= 1
    1       1.200000000000        1.000000000000
 53 H     1 shells
 l=0 nsto= 1
    1       1.200000000000        1.000000000000
------------------------------------------------------------------------------
                           ORCA NDO INTEGRAL CALCULATION
------------------------------------------------------------------------------

--------------
NDO PARAMETERS
--------------

Gamma integral treatment              ... Mataga-Nishimoto
Nuclear repulsuion treatment          ... Direct (ZA*ZB/RAB)
Interaction factors:
s-s (sigma) =    1.0000
s-p (sigma) =    1.0000
s-d (sigma) =    1.0000
p-p (sigma) =    1.2670  p-p(pi) =    0.5850
p-d (sigma) =    1.0000  p-d(pi) =    1.0000
d-d (sigma) =    1.0000  d-d(pi) =    1.0000 d-d (delta) =    1.0000

fGamma parameter for Mataga-Nishimoto gamma integrals:    1.2000

--------------------------
Parameters for Element H :
--------------------------
 One-electron parameters (in eV)
  U(s)  =   -13.060000 Beta(s) =    12.000000 Neff(s) =     1.000000
 One-center electron repulsion parameters (in eV)
  G(s,s)=    12.850000
--------------------------
Parameters for Element C :
--------------------------
 One-electron parameters (in eV)
  U(s)  =   -50.870766 Beta(s) =    17.000000 Neff(s) =     2.000000
  U(p)  =   -41.599980 Beta(p) =    17.000000 Neff(p) =     2.000000 
 One-center electron repulsion parameters (in eV)
  G(s,s)=    11.110000
  G(s,p)=    11.110000 G(p,p)  =    11.110000
 Slater-Condon parameters (in eV)
 F2(p,p)=     4.5098 G1(s,p)=    6.8977
--------------------------
Parameters for Element S :
--------------------------
 One-electron parameters (in eV)
  U(s)  =   -69.509597 Beta(s) =    15.000000 Neff(s) =     2.000000
  U(p)  =   -60.725746 Beta(p) =    15.000000 Neff(p) =     4.000000 
 One-center electron repulsion parameters (in eV)
  G(s,s)=    10.090000
  G(s,p)=    10.090000 G(p,p)  =    10.090000
 Slater-Condon parameters (in eV)
 F2(p,p)=     4.5377 G1(s,p)=    3.0756

 Number of atoms                    ....   54
 Number of basis functions          ....  120

 Overlap integrals                  .... done
 One electron matrix                .... done
 Nuclear repulsion                  .... done
 Integral list                      .... done
 Electron-electron repulsion        .... done
-------------------------------------------------------------------------------
                                 ORCA SCF
-------------------------------------------------------------------------------

------------
SCF SETTINGS
------------
Hamiltonian:
 ZDO-Hamiltonian        Method          .... INDO


General Settings:
 Integral files         IntName         .... /Users/mattyjones/GoogleDrive/Boise/Code/MorphCT/tests/output_EZ/donor_polymer/chromophores/input_orca/pair/00004-00022
 Hartree-Fock type      HFTyp           .... RHF
 Total Charge           Charge          ....    0
 Multiplicity           Mult            ....    1
 Number of Electrons    NEL             ....  124
 Basis Dimension        Dim             ....  120
 Nuclear Repulsion      ENuc            ....    628.5231353178 Eh

Convergence Acceleration:
 DIIS                   CNVDIIS         .... on
   Start iteration      DIISMaxIt       ....    12
   Startup error        DIISStart       ....  0.200000
   # of expansion vecs  DIISMaxEq       ....     5
   Bias factor          DIISBfac        ....   1.050
   Max. coefficient     DIISMaxC        ....  10.000
 Newton-Raphson         CNVNR           .... off
 SOSCF                  CNVSOSCF        .... on
   Start iteration      SOSCFMaxIt      ....   150
   Startup grad/error   SOSCFStart      ....  0.003300
 Level Shifting         CNVShift        .... on
   Level shift para.    LevelShift      ....    0.2500
   Turn off err/grad.   ShiftErr        ....    0.0010
 Zerner damping         CNVZerner       .... off
 Static damping         CNVDamp         .... on
   Fraction old density DampFac         ....    0.7000
   Max. Damping (<1)    DampMax         ....    0.9800
   Min. Damping (>=0)   DampMin         ....    0.0000
   Turn off err/grad.   DampErr         ....    0.1000
 Fernandez-Rico         CNVRico         .... off

SCF Procedure:
 Maximum # iterations   MaxIter         ....   125
 SCF integral mode      SCFMode         .... Conventional
 Integral Buffer length BufferLength    .... 1048576
 Integral index format  IndFormat       ....     0
 Integral value format  ValFormat       ....     0
 Integral Storage       Thresh          ....  1.000e-08 Eh

Convergence Tolerance:
 Convergence Check Mode ConvCheckMode   .... Total+1el-Energy
 Energy Change          TolE            ....  1.000e-06 Eh
 1-El. energy change                    ....  1.000e-03 Eh
 Orbital Gradient       TolG            ....  5.000e-05
 Orbital Rotation angle TolX            ....  5.000e-05
 DIIS Error             TolErr          ....  1.000e-06


Diagonalization of the overlap matrix:
Smallest eigenvalue                        ... 1.697e-01
Time for diagonalization                   ...    0.003 sec
Threshold for overlap eigenvalues          ... 1.000e-08
Number of eigenvalues below threshold      ... 0
Time for construction of square roots      ...    0.001 sec
Total time needed                          ...    0.004 sec

-------------------------------
INITIAL GUESS: EXTENDED HUECKEL
-------------------------------
EHT matrix was read from disk
EHT matrix was diagonalized
Initial density was built
                      ------------------
                      INITIAL GUESS DONE
                      ------------------

 InCore treatment chosen:
   Memory dedicated               ...    1024 MB
   Memory needed                  ...      0 MB
   Number of tiny    integrals    ...       0
   Number of small   integrals    ...       0
   Number of regular integrals    ...    7392

--------------
SCF ITERATIONS
--------------
ITER       Energy         Delta-E        Max-DP      RMS-DP      [F,P]     Damp
  0    -19.8691000242   0.000000000000 0.04126837  0.00144422  0.1149843 0.7000
  1    -19.9106688378  -0.041568813661 0.03883631  0.00135947  0.0784675 0.7000
                               ***Turning on DIIS***
  2    -19.9414430018  -0.030774163921 0.09813431  0.00348798  0.0485611 0.0000
  3    -20.0221445693  -0.080701567536 0.02113834  0.00072169  0.0219562 0.0000
  4    -20.0071798519   0.014964717398 0.01079822  0.00049306  0.0067540 0.0000
  5    -20.0239296397  -0.016749787761 0.00743138  0.00033287  0.0038286 0.0000
  6    -20.0267171455  -0.002787505861 0.00560210  0.00023606  0.0020421 0.0000
                      *** Initiating the SOSCF procedure ***
                           *** Shutting down DIIS ***
                      *** Re-Reading the Fockian *** 
                      *** Removing any level shift *** 
ITER      Energy       Delta-E        Grad      Rot      Max-DP    RMS-DP
  7    -20.02242657   0.0042905715  0.002999  0.002999  0.003332  0.000133
  8    -20.02043472   0.0019918503  0.000799  0.002196  0.001664  0.000062
  9    -20.02044908  -0.0000143558  0.000353  0.002142  0.001858  0.000065
 10    -20.02045431  -0.0000052340  0.000027  0.000058  0.000106  0.000004
                 **** Energy Check signals convergence ****
              ***Rediagonalizing the Fockian in SOSCF/NRSCF***

               *****************************************************
               *                     SUCCESS                       *
               *           SCF CONVERGED AFTER  11 CYCLES          *
               *****************************************************


----------------
TOTAL SCF ENERGY
----------------

Total Energy       :          -20.02045436 Eh            -544.78426 eV

Components:
Nuclear Repulsion  :          628.52313532 Eh           17102.98401 eV
Electronic Energy  :         -648.54358968 Eh          -17647.76827 eV

One Electron Energy:        -1206.69439947 Eh          -32835.82395 eV
Two Electron Energy:          558.15080980 Eh           15188.05568 eV


---------------
SCF CONVERGENCE
---------------

  Last Energy change         ...   -4.4306e-08  Tolerance :   1.0000e-06
  Last MAX-Density change    ...    3.9495e-05  Tolerance :   1.0000e-05
  Last RMS-Density change    ...    1.2343e-06  Tolerance :   1.0000e-06
  Last Orbital Gradient      ...    8.1611e-06  Tolerance :   5.0000e-05
  Last Orbital Rotation      ...    2.1854e-05  Tolerance :   5.0000e-05

             **** THE GBW FILE WAS UPDATED (/Users/mattyjones/GoogleDrive/Boise/Code/MorphCT/tests/output_EZ/donor_polymer/chromophores/input_orca/pair/00004-00022.gbw) ****
             **** DENSITY FILE WAS UPDATED (/Users/mattyjones/GoogleDrive/Boise/Code/MorphCT/tests/output_EZ/donor_polymer/chromophores/input_orca/pair/00004-00022.scfp.tmp) ****
             **** ENERGY FILE WAS UPDATED (/Users/mattyjones/GoogleDrive/Boise/Code/MorphCT/tests/output_EZ/donor_polymer/chromophores/input_orca/pair/00004-00022.en.tmp) ****
----------------
ORBITAL ENERGIES
----------------

  NO   OCC          E(Eh)            E(eV) 
   0   2.0000      -1.558087       -42.3977 
   1   2.0000      -1.555524       -42.3280 
   2   2.0000      -1.411932       -38.4206 
   3   2.0000      -1.382886       -37.6302 
   4   2.0000      -1.292203       -35.1626 
   5   2.0000      -1.283281       -34.9198 
   6   2.0000      -1.182292       -32.1718 
   7   2.0000      -1.176645       -32.0181 
   8   2.0000      -1.116066       -30.3697 
   9   2.0000      -1.112386       -30.2696 
  10   2.0000      -1.054260       -28.6879 
  11   2.0000      -1.039542       -28.2874 
  12   2.0000      -0.973700       -26.4957 
  13   2.0000      -0.949222       -25.8296 
  14   2.0000      -0.914340       -24.8804 
  15   2.0000      -0.908171       -24.7126 
  16   2.0000      -0.858623       -23.3643 
  17   2.0000      -0.844435       -22.9782 
  18   2.0000      -0.832381       -22.6502 
  19   2.0000      -0.820946       -22.3391 
  20   2.0000      -0.772530       -21.0216 
  21   2.0000      -0.768758       -20.9190 
  22   2.0000      -0.736025       -20.0283 
  23   2.0000      -0.733729       -19.9658 
  24   2.0000      -0.709251       -19.2997 
  25   2.0000      -0.682780       -18.5794 
  26   2.0000      -0.676590       -18.4109 
  27   2.0000      -0.658360       -17.9149 
  28   2.0000      -0.650371       -17.6975 
  29   2.0000      -0.646182       -17.5835 
  30   2.0000      -0.624153       -16.9841 
  31   2.0000      -0.603938       -16.4340 
  32   2.0000      -0.591189       -16.0871 
  33   2.0000      -0.582689       -15.8558 
  34   2.0000      -0.580140       -15.7864 
  35   2.0000      -0.575211       -15.6523 
  36   2.0000      -0.574722       -15.6390 
  37   2.0000      -0.570492       -15.5239 
  38   2.0000      -0.552157       -15.0250 
  39   2.0000      -0.548927       -14.9371 
  40   2.0000      -0.541848       -14.7444 
  41   2.0000      -0.531377       -14.4595 
  42   2.0000      -0.514981       -14.0133 
  43   2.0000      -0.514600       -14.0030 
  44   2.0000      -0.506872       -13.7927 
  45   2.0000      -0.506601       -13.7853 
  46   2.0000      -0.496781       -13.5181 
  47   2.0000      -0.495412       -13.4808 
  48   2.0000      -0.494450       -13.4547 
  49   2.0000      -0.488383       -13.2896 
  50   2.0000      -0.475260       -12.9325 
  51   2.0000      -0.475045       -12.9266 
  52   2.0000      -0.472756       -12.8643 
  53   2.0000      -0.464815       -12.6482 
  54   2.0000      -0.461724       -12.5641 
  55   2.0000      -0.452288       -12.3074 
  56   2.0000      -0.437899       -11.9158 
  57   2.0000      -0.437176       -11.8962 
  58   2.0000      -0.356445        -9.6994 
  59   2.0000      -0.356389        -9.6978 
  60   2.0000      -0.305590        -8.3155 
  61   2.0000      -0.304608        -8.2888 
  62   0.0000       0.007379         0.2008 
  63   0.0000       0.008119         0.2209 
  64   0.0000       0.055012         1.4970 
  65   0.0000       0.071905         1.9566 
  66   0.0000       0.075174         2.0456 
  67   0.0000       0.079757         2.1703 
  68   0.0000       0.083675         2.2769 
  69   0.0000       0.087973         2.3939 
  70   0.0000       0.099807         2.7159 
  71   0.0000       0.104494         2.8434 
  72   0.0000       0.106538         2.8991 
  73   0.0000       0.108922         2.9639 
  74   0.0000       0.122341         3.3291 
  75   0.0000       0.123994         3.3740 
  76   0.0000       0.142414         3.8753 
  77   0.0000       0.142909         3.8887 
  78   0.0000       0.156445         4.2571 
  79   0.0000       0.159661         4.3446 
  80   0.0000       0.165131         4.4934 
  81   0.0000       0.166072         4.5190 
  82   0.0000       0.168707         4.5908 
  83   0.0000       0.172595         4.6965 
  84   0.0000       0.203621         5.5408 
  85   0.0000       0.206854         5.6288 
  86   0.0000       0.225754         6.1431 
  87   0.0000       0.232019         6.3135 
  88   0.0000       0.232172         6.3177 
  89   0.0000       0.233356         6.3499 
  90   0.0000       0.235917         6.4196 
  91   0.0000       0.236774         6.4430 
  92   0.0000       0.237319         6.4578 
  93   0.0000       0.238565         6.4917 
  94   0.0000       0.239595         6.5197 
  95   0.0000       0.240357         6.5404 
  96   0.0000       0.241167         6.5625 
  97   0.0000       0.241606         6.5744 
  98   0.0000       0.244467         6.6523 
  99   0.0000       0.245557         6.6820 
 100   0.0000       0.246130         6.6975 
 101   0.0000       0.253981         6.9112 
 102   0.0000       0.255158         6.9432 
 103   0.0000       0.266269         7.2455 
 104   0.0000       0.266425         7.2498 
 105   0.0000       0.267426         7.2770 
 106   0.0000       0.274126         7.4593 
 107   0.0000       0.280484         7.6324 
 108   0.0000       0.302382         8.2282 
 109   0.0000       0.306052         8.3281 
 110   0.0000       0.309723         8.4280 
 111   0.0000       0.310473         8.4484 
 112   0.0000       0.341281         9.2867 
 113   0.0000       0.342840         9.3292 
 114   0.0000       0.351622         9.5681 
 115   0.0000       0.365031         9.9330 
 116   0.0000       0.413854        11.2615 
 117   0.0000       0.414186        11.2706 
 118   0.0000       0.427859        11.6426 
 119   0.0000       0.430074        11.7029 
-------
TIMINGS
-------

Total SCF time: 0 days 0 hours 0 min 0 sec 

Total time                  ....       0.171 sec
Sum of individual times     ....       0.113 sec  ( 66.4%)

Fock matrix formation       ....       0.058 sec  ( 33.7%)
Diagonalization             ....       0.025 sec  ( 14.6%)
Density matrix formation    ....       0.006 sec  (  3.3%)
Population analysis         ....       0.000 sec  (  0.0%)
Initial guess               ....       0.003 sec  (  1.7%)
Orbital Transformation      ....       0.000 sec  (  0.0%)
Orbital Orthonormalization  ....       0.000 sec  (  0.0%)
DIIS solution               ....       0.016 sec  (  9.6%)
SOSCF solution              ....       0.006 sec  (  3.5%)

-------------------------   --------------------
FINAL SINGLE POINT ENERGY       -20.020454357863
-------------------------   --------------------


                            ***************************************
                            *     ORCA property calculations      *
                            ***************************************

                                    ---------------------
                                    Active property flags
                                    ---------------------
   (+) Dipole Moment


------------------------------------------------------------------------------
                       ORCA ELECTRIC PROPERTIES CALCULATION
------------------------------------------------------------------------------

Dipole Moment Calculation                       ... on
Quadrupole Moment Calculation                   ... off
Polarizability Calculation                      ... off
GBWName                                         ... /Users/mattyjones/GoogleDrive/Boise/Code/MorphCT/tests/output_EZ/donor_polymer/chromophores/input_orca/pair/00004-00022.gbw
Electron density file                           ... /Users/mattyjones/GoogleDrive/Boise/Code/MorphCT/tests/output_EZ/donor_polymer/chromophores/input_orca/pair/00004-00022.scfp.tmp

-------------
DIPOLE MOMENT
-------------
                                X             Y             Z
Electronic contribution:    -18.45096       9.95451      26.50965
Nuclear contribution   :      3.64937      -5.53321     -15.61347
                        -----------------------------------------
Total Dipole Moment    :    -14.80159       4.42129      10.89619
                        -----------------------------------------
Magnitude (a.u.)       :     18.90401
Magnitude (Debye)      :     48.05019


Timings for individual modules:

Sum of individual times         ...        0.257 sec (=   0.004 min)
STO integral calculation        ...        0.043 sec (=   0.001 min)  16.7 %
SCF iterations                  ...        0.214 sec (=   0.004 min)  83.3 %
                             ****ORCA TERMINATED NORMALLY****
TOTAL RUN TIME: 0 days 0 hours 0 minutes 0 seconds 639 msec

