
                                 *****************
                                 * O   R   C   A *
                                 *****************

           --- An Ab Initio, DFT and Semiempirical electronic structure package ---

                  #######################################################
                  #                        -***-                        #
                  #  Department of molecular theory and spectroscopy    #
                  #              Directorship: Frank Neese              #
                  # Max Planck Institute for Chemical Energy Conversion #
                  #                  D-45470 Muelheim/Ruhr              #
                  #                       Germany                       #
                  #                                                     #
                  #                  All rights reserved                #
                  #                        -***-                        #
                  #######################################################


                         Program Version 4.0.1.2 - RELEASE -


 With contributions from (in alphabetic order):
   Daniel Aravena         : Magnetic Properties
   Michael Atanasov       : Ab Initio Ligand Field Theory
   Ute Becker             : Parallelization
   Martin Brehm           : Molecular dynamics
   Dmytro Bykov           : SCF Hessian
   Vijay G. Chilkuri      : MRCI spin determinant printing
   Dipayan Datta          : RHF DLPNO-CCSD density
   Achintya Kumar Dutta   : EOM-CC, STEOM-CC
   Dmitry Ganyushin       : Spin-Orbit,Spin-Spin,Magnetic field MRCI
   Yang Guo               : DLPNO-NEVPT2, CIM, IAO-localization
   Andreas Hansen         : Spin unrestricted coupled pair/coupled cluster methods
   Lee Huntington         : MR-EOM, pCC
   Robert Izsak           : Overlap fitted RIJCOSX, COSX-SCS-MP3, EOM
   Christian Kollmar      : KDIIS, OOCD, Brueckner-CCSD(T), CCSD density
   Simone Kossmann        : Meta GGA functionals, TD-DFT gradient, OOMP2, MP2 Hessian
   Martin Krupicka        : AUTO-CI
   Dagmar Lenk            : GEPOL surface
   Dimitrios Liakos       : Extrapolation schemes; parallel MDCI
   Dimitrios Manganas     : ROCIS; embedding schemes
   Dimitrios Pantazis     : SARC Basis sets
   Taras Petrenko         : DFT Hessian,TD-DFT gradient, ASA, ECA, R-Raman, ABS, FL, XAS/XES, NRVS
   Peter Pinski           : DLPNO-MP2
   Christoph Reimann      : Effective Core Potentials
   Marius Retegan         : Local ZFS, SOC
   Christoph Riplinger    : Optimizer, TS searches, QM/MM, DLPNO-CCSD(T), (RO)-DLPNO pert. Triples
   Tobias Risthaus        : Range-separated hybrids, TD-DFT gradient, RPA, STAB
   Michael Roemelt        : Restricted open shell CIS
   Masaaki Saitow         : Open-shell DLPNO
   Barbara Sandhoefer     : DKH picture change effects
   Kantharuban Sivalingam : CASSCF convergence, NEVPT2, FIC-MRCI
   Georgi Stoychev        : AutoAux
   Boris Wezisla          : Elementary symmetry handling
   Frank Wennmohs         : Technical directorship


 We gratefully acknowledge several colleagues who have allowed us to
 interface, adapt or use parts of their codes:
   Stefan Grimme, W. Hujo, H. Kruse,             : VdW corrections, initial TS optimization,
                  C. Bannwarth                     DFT functionals, gCP, sTDA/sTD-DF
   Ed Valeev                                     : LibInt (2-el integral package), F12 methods
   Garnet Chan, S. Sharma, J. Yang, R. Olivares  : DMRG
   Ulf Ekstrom                                   : XCFun DFT Library
   Mihaly Kallay                                 : mrcc  (arbitrary order and MRCC methods)
   Andreas Klamt, Michael Diedenhofen            : otool_cosmo (COSMO solvation model)
   Jiri Pittner, Ondrej Demel                    : Mk-CCSD
   Frank Weinhold                                : gennbo (NPA and NBO analysis)
   Christopher J. Cramer and Donald G. Truhlar   : smd solvation model


 Your calculation uses the libint2 library for the computation of 2-el integrals
 For citations please refer to: http://libint.valeyev.net

 This ORCA versions uses:
   CBLAS   interface :  Fast vector & matrix operations
   LAPACKE interface :  Fast linear algebra routines
   SCALAPACK package :  Parallel linear algebra routines


leaving
Your calculation utilizes the basis: def2-SVP
   F. Weigend and R. Ahlrichs, Phys. Chem. Chem. Phys. 7, 3297 (2005).

================================================================================
                                        WARNINGS
                       Please study these warnings very carefully!
================================================================================

Warning: TCutStore was < 0. Adjusted to Thresh (uncritical)

WARNING: Direct SCF is incompatible with Method<>HF and Method<>DFT
  ===> : conventional SCF is chosen

WARNING: The NDO methods need Guess=HUECKEL or Guess=HCORE or Guess=MOREAD
  ===> : Guess is set to Hueckel

WARNING: The NDO methods need %rel::SOCType==1
  ===> : %rel::SOCType is set to 1

WARNING: The NDO methods cannot have frozencore=1
  ===> : %method FrozenCore=0 end

INFO   : the flag for use of LIBINT has been found!

================================================================================
                                       INPUT FILE
================================================================================
NAME = /home/mattyjones/Software/morphct/tests/output_EZ/donor_polymer/chromophores/input_orca/pair/00001-00016.inp
|  1> # ================================================================
|  2> # Orca input file made by Matty Jones
|  3> # ================================================================
|  4> ! ZINDO/S 
|  5> ! NOPOP
|  6> ! NOMOPRINT
|  7> * xyz 0   1
|  8>  C  5.94315  -28.79169  -4.84077
|  9>  C  7.12462  -28.12218  -4.51863
| 10>  C  7.95317  -28.81720  -3.58337
| 11>  C  7.42328  -30.04170  -3.16489
| 12>  S  5.97783  -30.19780  -3.96285
| 13>  H  7.41561  -27.10367  -4.94641
| 14>  C  9.42556  -28.46668  -2.90356
| 15>  C  10.39792  -27.19276  -2.14596
| 16>  C  11.64202  -26.15926  -2.72859
| 17>  H  11.22816  -25.64025  -3.67128
| 18>  H  12.51426  -26.85708  -3.03336
| 19>  H  10.89502  -27.72997  -1.25283
| 20>  H  9.59201  -26.46607  -1.75371
| 21>  H  9.48354  -29.17496  -1.98167
| 22>  H  10.20796  -28.83512  -3.69820
| 23>  C  12.24493  -25.01264  -1.71071
| 24>  C  13.29330  -25.30214  -0.38405
| 25>  C  14.97718  -25.29627  -0.52238
| 26>  H  15.27759  -25.22035  -1.63492
| 27>  H  15.39518  -26.27830  -0.07144
| 28>  H  15.41172  -24.39575  0.06211
| 29>  H  13.04453  -24.46921  0.38058
| 30>  H  12.98883  -26.32092  0.06159
| 31>  H  11.34067  -24.44587  -1.26116
| 32>  H  12.84196  -24.27088  -2.37607
| 33>  C  -12.72915  23.46287  -0.77396
| 34>  C  -11.55231  24.00308  -0.25325
| 35>  C  -11.75665  25.12347  0.61117
| 36>  C  -13.10163  25.46971  0.77385
| 37>  S  -13.95521  24.38662  -0.14743
| 38>  H  -10.53570  23.54424  -0.48210
| 39>  C  -10.38050  25.76279  1.17020
| 40>  C  -10.00447  27.41854  1.14163
| 41>  C  -10.53880  28.30944  2.47289
| 42>  H  -11.62546  28.02324  2.70956
| 43>  H  -10.48159  29.43820  2.23552
| 44>  H  -8.85340  27.51452  1.09274
| 45>  H  -10.46873  27.87294  0.19362
| 46>  H  -10.33969  25.49463  2.28867
| 47>  H  -9.45410  25.23123  0.66375
| 48>  C  -9.60320  27.95443  3.75187
| 49>  C  -10.07351  28.69780  5.18717
| 50>  C  -9.16331  30.05860  5.55232
| 51>  H  -9.43535  30.42043  6.61773
| 52>  H  -9.38566  30.89613  4.78598
| 53>  H  -8.03902  29.78353  5.51471
| 54>  H  -11.17655  29.02093  5.08320
| 55>  H  -9.97687  27.94073  6.04852
| 56>  H  -8.51261  28.26989  3.52616
| 57>  H  -9.62184  26.81122  3.93386
| 58>  H  5.18378  -28.46924  -5.50634
| 59>  H  7.85505  -30.72673  -2.48086
| 60>  H  -12.81996  22.63632  -1.43135
| 61>  H  -13.49356  26.25915  1.36272
| 62> *
| 63> 
| 64>                          ****END OF INPUT****
================================================================================

                       ****************************
                       * Single Point Calculation *
                       ****************************

---------------------------------
CARTESIAN COORDINATES (ANGSTROEM)
---------------------------------
  C      5.943150  -28.791690   -4.840770
  C      7.124620  -28.122180   -4.518630
  C      7.953170  -28.817200   -3.583370
  C      7.423280  -30.041700   -3.164890
  S      5.977830  -30.197800   -3.962850
  H      7.415610  -27.103670   -4.946410
  C      9.425560  -28.466680   -2.903560
  C     10.397920  -27.192760   -2.145960
  C     11.642020  -26.159260   -2.728590
  H     11.228160  -25.640250   -3.671280
  H     12.514260  -26.857080   -3.033360
  H     10.895020  -27.729970   -1.252830
  H      9.592010  -26.466070   -1.753710
  H      9.483540  -29.174960   -1.981670
  H     10.207960  -28.835120   -3.698200
  C     12.244930  -25.012640   -1.710710
  C     13.293300  -25.302140   -0.384050
  C     14.977180  -25.296270   -0.522380
  H     15.277590  -25.220350   -1.634920
  H     15.395180  -26.278300   -0.071440
  H     15.411720  -24.395750    0.062110
  H     13.044530  -24.469210    0.380580
  H     12.988830  -26.320920    0.061590
  H     11.340670  -24.445870   -1.261160
  H     12.841960  -24.270880   -2.376070
  C    -12.729150   23.462870   -0.773960
  C    -11.552310   24.003080   -0.253250
  C    -11.756650   25.123470    0.611170
  C    -13.101630   25.469710    0.773850
  S    -13.955210   24.386620   -0.147430
  H    -10.535700   23.544240   -0.482100
  C    -10.380500   25.762790    1.170200
  C    -10.004470   27.418540    1.141630
  C    -10.538800   28.309440    2.472890
  H    -11.625460   28.023240    2.709560
  H    -10.481590   29.438200    2.235520
  H     -8.853400   27.514520    1.092740
  H    -10.468730   27.872940    0.193620
  H    -10.339690   25.494630    2.288670
  H     -9.454100   25.231230    0.663750
  C     -9.603200   27.954430    3.751870
  C    -10.073510   28.697800    5.187170
  C     -9.163310   30.058600    5.552320
  H     -9.435350   30.420430    6.617730
  H     -9.385660   30.896130    4.785980
  H     -8.039020   29.783530    5.514710
  H    -11.176550   29.020930    5.083200
  H     -9.976870   27.940730    6.048520
  H     -8.512610   28.269890    3.526160
  H     -9.621840   26.811220    3.933860
  H      5.183780  -28.469240   -5.506340
  H      7.855050  -30.726730   -2.480860
  H    -12.819960   22.636320   -1.431350
  H    -13.493560   26.259150    1.362720

----------------------------
CARTESIAN COORDINATES (A.U.)
----------------------------
  NO LB      ZA    FRAG     MASS         X           Y           Z
   0 C     4.0000    0    12.011   11.230926  -54.408409   -9.147730
   1 C     4.0000    0    12.011   13.463581  -53.143218   -8.538973
   2 C     4.0000    0    12.011   15.029313  -54.456616   -6.771588
   3 C     4.0000    0    12.011   14.027966  -56.770586   -5.980775
   4 S     6.0000    0    32.060   11.296462  -57.065572   -7.488701
   5 H     1.0000    0     1.008   14.013472  -51.218514   -9.347360
   6 C     4.0000    0    12.011   17.811727  -53.794229   -5.486933
   7 C     4.0000    0    12.011   19.649221  -51.386869   -4.055277
   8 C     4.0000    0    12.011   22.000229  -49.433837   -5.156288
   9 H     1.0000    0     1.008   21.218147  -48.453051   -6.937714
  10 H     1.0000    0     1.008   23.648524  -50.752526   -5.732220
  11 H     1.0000    0     1.008   20.588604  -52.402049   -2.367506
  12 H     1.0000    0     1.008   18.126272  -50.013624   -3.314032
  13 H     1.0000    0     1.008   17.921293  -55.132684   -3.744814
  14 H     1.0000    0     1.008   19.290249  -54.490480   -6.988585
  15 C     4.0000    0    12.011   23.139564  -47.267039   -3.232773
  16 C     4.0000    0    12.011   25.120696  -47.814115   -0.725749
  17 C     4.0000    0    12.011   28.302768  -47.803023   -0.987155
  18 H     1.0000    0     1.008   28.870461  -47.659555   -3.089551
  19 H     1.0000    0     1.008   29.092674  -49.658790   -0.135002
  20 H     1.0000    0     1.008   29.123930  -46.101286    0.117371
  21 H     1.0000    0     1.008   24.650589  -46.240106    0.719192
  22 H     1.0000    0     1.008   24.545332  -49.739330    0.116388
  23 H     1.0000    0     1.008   21.430760  -46.195999   -2.383247
  24 H     1.0000    0     1.008   24.267787  -45.865316   -4.490122
  25 C     4.0000    0    12.011  -24.054607   44.338399   -1.462572
  26 C     4.0000    0    12.011  -21.830702   45.359248   -0.478573
  27 C     4.0000    0    12.011  -22.216849   47.476478    1.154944
  28 C     4.0000    0    12.011  -24.758493   48.130777    1.462365
  29 S     6.0000    0    32.060  -26.371525   46.084033   -0.278602
  30 H     1.0000    0     1.008  -19.909588   44.492166   -0.911037
  31 C     4.0000    0    12.011  -19.616302   48.684618    2.211358
  32 C     4.0000    0    12.011  -18.905708   51.813532    2.157368
  33 C     4.0000    0    12.011  -19.915446   53.497089    4.673085
  34 H     1.0000    0     1.008  -21.968936   52.956249    5.120326
  35 H     1.0000    0     1.008  -19.807335   55.630136    4.224521
  36 H     1.0000    0     1.008  -16.730501   51.994908    2.064979
  37 H     1.0000    0     1.008  -19.783033   52.672223    0.365889
  38 H     1.0000    0     1.008  -19.539182   48.177869    4.324960
  39 H     1.0000    0     1.008  -17.865660   47.680115    1.254306
  40 C     4.0000    0    12.011  -18.147418   52.826217    7.090007
  41 C     4.0000    0    12.011  -19.036175   54.230983    9.802331
  42 C     4.0000    0    12.011  -17.316146   56.802522   10.492364
  43 H     1.0000    0     1.008  -17.830227   57.486282   12.505697
  44 H     1.0000    0     1.008  -17.736327   58.385224    9.044191
  45 H     1.0000    0     1.008  -15.191546   56.282715   10.421292
  46 H     1.0000    0     1.008  -21.120619   54.841610    9.605856
  47 H     1.0000    0     1.008  -18.853552   52.800328   11.430046
  48 H     1.0000    0     1.008  -16.086502   53.422350    6.663477
  49 H     1.0000    0     1.008  -18.182643   50.665863    7.433918
  50 H     1.0000    0     1.008    9.795925  -53.799067  -10.405475
  51 H     1.0000    0     1.008   14.843893  -58.065105   -4.688146
  52 H     1.0000    0     1.008  -24.226213   42.776445   -2.704860
  53 H     1.0000    0     1.008  -25.499133   49.622602    2.575168

--------------------------------
INTERNAL COORDINATES (ANGSTROEM)
--------------------------------
 C      0   0   0     0.000000000000     0.00000000     0.00000000
 C      1   0   0     1.395668005150     0.00000000     0.00000000
 C      2   1   0     1.429775916184   114.10152281     0.00000000
 C      3   2   1     1.398323700900   113.69340405     0.00000000
 S      1   2   3     1.658038467859   105.47969067     0.00000000
 H      2   1   3     1.142380640855   123.84086107   180.58537016
 C      3   2   1     1.659198064910   132.80998893   179.41778927
 C      7   3   2     1.772657297957   144.45921363    44.36281193
 C      8   7   3     1.719117441276   133.16946735   259.99563894
 H      9   8   7     1.152959633205   106.73572283    53.05042820
 H      9   8   7     1.157860148248   105.78659221   296.99060544
 H      8   7   3     1.154722560185   103.43630903   136.71564813
 H      8   7   3     1.153875793446   102.40153676    23.09377781
 H      7   3   2     1.164003183372   103.89564950   162.59134240
 H      7   3   2     1.174457544231   104.34040830   275.84311477
 C      9   8   7     1.647518615039   118.28426462   176.08013154
 C     16   9   8     1.715493125168   125.73097104    73.91930707
 C     17  16   9     1.689562517399   123.03567743    89.84767934
 H     18  17  16     1.154883226175   109.77616488   352.18888152
 H     18  17  16     1.158643087624   108.95006484   232.06486074
 H     18  17  16     1.158183855051   109.59151742   112.75987550
 H     17  16   9     1.157721009009   104.95332399   209.96445853
 H     17  16   9     1.152913560897   106.65785324   325.40991007
 H     16   9   8     1.158019681612   107.14031365   310.10490429
 H     16   9   8     1.161618116293   106.17773789   194.73073021
 C     24  16   9    53.617543463497   142.31573938   246.81695517
 C     26  24  16     1.395678377636    88.32156461   299.50889606
 C     27  26  24     1.429772892490   114.10181902   211.03797259
 C     28  27  26     1.398326900406   113.69282564     0.00000000
 S     26  24  16     1.658034084993   146.42974114   183.48663620
 H     27  26  24     1.138596662651   121.45952791    28.76311398
 C     28  27  26     1.617106497977   113.40211398   181.69197047
 C     32  28  27     1.698152781201   124.61784770   131.10991647
 C     33  32  28     1.688628007141   115.53626813    87.44833952
 H     34  33  32     1.148369750777   109.29390769   314.64348521
 H     34  33  32     1.154866502501   109.75178550   194.61858485
 H     33  32  28     1.156098844131   107.58561452   207.81525542
 H     33  32  28     1.149234383274   108.05593665   326.00569067
 H     32  28  27     1.150891125433   105.90351187   250.74461260
 H     32  28  27     1.182059472319   109.94038442     5.40838688
 C     34  33  32     1.623936359744   108.86032099    73.80290788
 C     41  34  33     1.683412172642   114.45681616   183.58079639
 C     42  41  34     1.677371515944   113.09462240   260.07420545
 H     43  42  41     1.157594565727   109.05121950   188.30271784
 H     43  42  41     1.156794285515   109.80692409    67.99047833
 H     43  42  41     1.158061320095   109.08937953   307.74229700
 H     42  41  34     1.154088384570   108.29133963    19.88623437
 H     42  41  34     1.150833653053   108.91649634   138.75275021
 H     41  34  33     1.157517414037   109.24854892    62.34699682
 H     41  34  33     1.157755118235   109.29244578   303.94499615
 H      1   2   3     1.060000105802   127.26066502   179.99962819
 H      4   3   2     1.059994563524   127.20656696   180.00005245
 H     26  24  16     1.059996684287    48.40052709    86.22689774
 H     29  28  27     1.059996469522   127.20588371   180.00027409

---------------------------
INTERNAL COORDINATES (A.U.)
---------------------------
 C      0   0   0     0.000000000000     0.00000000     0.00000000
 C      1   0   0     2.637430303610     0.00000000     0.00000000
 C      2   1   0     2.701884914464   114.10152281     0.00000000
 C      3   2   1     2.642448841273   113.69340405     0.00000000
 S      1   2   3     3.133238623760   105.47969067     0.00000000
 H      2   1   3     2.158786551909   123.84086107   180.58537016
 C      3   2   1     3.135429944611   132.80998893   179.41778927
 C      7   3   2     3.349836822435   144.45921363    44.36281193
 C      8   7   3     3.248661156059   133.16946735   259.99563894
 H      9   8   7     2.178777950224   106.73572283    53.05042820
 H      9   8   7     2.188038581569   105.78659221   296.99060544
 H      8   7   3     2.182109399410   103.43630903   136.71564813
 H      8   7   3     2.180509242174   102.40153676    23.09377781
 H      7   3   2     2.199647235585   103.89564950   162.59134240
 H      7   3   2     2.219403114513   104.34040830   275.84311477
 C      9   8   7     3.113358982961   118.28426462   176.08013154
 C     16   9   8     3.241812191193   125.73097104    73.91930707
 C     17  16   9     3.192810444023   123.03567743    89.84767934
 H     18  17  16     2.182413014130   109.77616488   352.18888152
 H     18  17  16     2.189518122571   108.95006484   232.06486074
 H     18  17  16     2.188650298775   109.59151742   112.75987550
 H     17  16   9     2.187775646513   104.95332399   209.96445853
 H     17  16   9     2.178690886179   106.65785324   325.40991007
 H     16   9   8     2.188340055937   107.14031365   310.10490429
 H     16   9   8     2.195140111995   106.17773789   194.73073021
 C     24  16   9   101.322473119629   142.31573938   246.81695517
 C     26  24  16     2.637449904767    88.32156461   299.50889606
 C     27  26  24     2.701879200511   114.10181902   211.03797259
 C     28  27  26     2.642454887463   113.69282564     0.00000000
 S     26  24  16     3.133230341344   146.42974114   183.48663620
 H     27  26  24     2.151635869407   121.45952791    28.76311398
 C     28  27  26     3.055888410561   113.40211398   181.69197047
 C     32  28  27     3.209043690026   124.61784770   131.10991647
 C     33  32  28     3.191044475565   115.53626813    87.44833952
 H     34  33  32     2.170104329448   109.29390769   314.64348521
 H     34  33  32     2.182381410967   109.75178550   194.61858485
 H     33  32  28     2.184710199150   107.58561452   207.81525542
 H     33  32  28     2.171738248074   108.05593665   326.00569067
 H     32  28  27     2.174869037028   105.90351187   250.74461260
 H     32  28  27     2.233768676691   109.94038442     5.40838688
 C     34  33  32     3.068794978834   108.86032099    73.80290788
 C     41  34  33     3.181187976803   114.45681616   183.58079639
 C     42  41  34     3.169772789974   113.09462240   260.07420545
 H     43  42  41     2.187536703339   109.05121950   188.30271784
 H     43  42  41     2.186024392908   109.80692409    67.99047833
 H     43  42  41     2.188418741267   109.08937953   307.74229700
 H     42  41  34     2.180910981177   108.29133963    19.88623437
 H     42  41  34     2.174760429971   108.91649634   138.75275021
 H     41  34  33     2.187390907776   109.24854892    62.34699682
 H     41  34  33     2.187840103610   109.29244578   303.94499615
 H      1   2   3     2.003109901893   127.26066502   179.99962819
 H      4   3   2     2.003099428505   127.20656696   180.00005245
 H     26  24  16     2.003103436168    48.40052709    86.22689774
 H     29  28  27     2.003103030321   127.20588371   180.00027409

----------------------------
SLATER BASIS SET DIM= 120
----------------------------
  0 C     2 shells
 l=0 nsto= 1
    2       1.625000000000        1.000000000000
 l=1 nsto= 1
    2       1.625000000000        1.000000000000
  1 C     2 shells
 l=0 nsto= 1
    2       1.625000000000        1.000000000000
 l=1 nsto= 1
    2       1.625000000000        1.000000000000
  2 C     2 shells
 l=0 nsto= 1
    2       1.625000000000        1.000000000000
 l=1 nsto= 1
    2       1.625000000000        1.000000000000
  3 C     2 shells
 l=0 nsto= 1
    2       1.625000000000        1.000000000000
 l=1 nsto= 1
    2       1.625000000000        1.000000000000
  4 S     2 shells
 l=0 nsto= 1
    3       1.925000000000        1.000000000000
 l=1 nsto= 1
    3       1.925000000000        1.000000000000
  5 H     1 shells
 l=0 nsto= 1
    1       1.200000000000        1.000000000000
  6 C     2 shells
 l=0 nsto= 1
    2       1.625000000000        1.000000000000
 l=1 nsto= 1
    2       1.625000000000        1.000000000000
  7 C     2 shells
 l=0 nsto= 1
    2       1.625000000000        1.000000000000
 l=1 nsto= 1
    2       1.625000000000        1.000000000000
  8 C     2 shells
 l=0 nsto= 1
    2       1.625000000000        1.000000000000
 l=1 nsto= 1
    2       1.625000000000        1.000000000000
  9 H     1 shells
 l=0 nsto= 1
    1       1.200000000000        1.000000000000
 10 H     1 shells
 l=0 nsto= 1
    1       1.200000000000        1.000000000000
 11 H     1 shells
 l=0 nsto= 1
    1       1.200000000000        1.000000000000
 12 H     1 shells
 l=0 nsto= 1
    1       1.200000000000        1.000000000000
 13 H     1 shells
 l=0 nsto= 1
    1       1.200000000000        1.000000000000
 14 H     1 shells
 l=0 nsto= 1
    1       1.200000000000        1.000000000000
 15 C     2 shells
 l=0 nsto= 1
    2       1.625000000000        1.000000000000
 l=1 nsto= 1
    2       1.625000000000        1.000000000000
 16 C     2 shells
 l=0 nsto= 1
    2       1.625000000000        1.000000000000
 l=1 nsto= 1
    2       1.625000000000        1.000000000000
 17 C     2 shells
 l=0 nsto= 1
    2       1.625000000000        1.000000000000
 l=1 nsto= 1
    2       1.625000000000        1.000000000000
 18 H     1 shells
 l=0 nsto= 1
    1       1.200000000000        1.000000000000
 19 H     1 shells
 l=0 nsto= 1
    1       1.200000000000        1.000000000000
 20 H     1 shells
 l=0 nsto= 1
    1       1.200000000000        1.000000000000
 21 H     1 shells
 l=0 nsto= 1
    1       1.200000000000        1.000000000000
 22 H     1 shells
 l=0 nsto= 1
    1       1.200000000000        1.000000000000
 23 H     1 shells
 l=0 nsto= 1
    1       1.200000000000        1.000000000000
 24 H     1 shells
 l=0 nsto= 1
    1       1.200000000000        1.000000000000
 25 C     2 shells
 l=0 nsto= 1
    2       1.625000000000        1.000000000000
 l=1 nsto= 1
    2       1.625000000000        1.000000000000
 26 C     2 shells
 l=0 nsto= 1
    2       1.625000000000        1.000000000000
 l=1 nsto= 1
    2       1.625000000000        1.000000000000
 27 C     2 shells
 l=0 nsto= 1
    2       1.625000000000        1.000000000000
 l=1 nsto= 1
    2       1.625000000000        1.000000000000
 28 C     2 shells
 l=0 nsto= 1
    2       1.625000000000        1.000000000000
 l=1 nsto= 1
    2       1.625000000000        1.000000000000
 29 S     2 shells
 l=0 nsto= 1
    3       1.925000000000        1.000000000000
 l=1 nsto= 1
    3       1.925000000000        1.000000000000
 30 H     1 shells
 l=0 nsto= 1
    1       1.200000000000        1.000000000000
 31 C     2 shells
 l=0 nsto= 1
    2       1.625000000000        1.000000000000
 l=1 nsto= 1
    2       1.625000000000        1.000000000000
 32 C     2 shells
 l=0 nsto= 1
    2       1.625000000000        1.000000000000
 l=1 nsto= 1
    2       1.625000000000        1.000000000000
 33 C     2 shells
 l=0 nsto= 1
    2       1.625000000000        1.000000000000
 l=1 nsto= 1
    2       1.625000000000        1.000000000000
 34 H     1 shells
 l=0 nsto= 1
    1       1.200000000000        1.000000000000
 35 H     1 shells
 l=0 nsto= 1
    1       1.200000000000        1.000000000000
 36 H     1 shells
 l=0 nsto= 1
    1       1.200000000000        1.000000000000
 37 H     1 shells
 l=0 nsto= 1
    1       1.200000000000        1.000000000000
 38 H     1 shells
 l=0 nsto= 1
    1       1.200000000000        1.000000000000
 39 H     1 shells
 l=0 nsto= 1
    1       1.200000000000        1.000000000000
 40 C     2 shells
 l=0 nsto= 1
    2       1.625000000000        1.000000000000
 l=1 nsto= 1
    2       1.625000000000        1.000000000000
 41 C     2 shells
 l=0 nsto= 1
    2       1.625000000000        1.000000000000
 l=1 nsto= 1
    2       1.625000000000        1.000000000000
 42 C     2 shells
 l=0 nsto= 1
    2       1.625000000000        1.000000000000
 l=1 nsto= 1
    2       1.625000000000        1.000000000000
 43 H     1 shells
 l=0 nsto= 1
    1       1.200000000000        1.000000000000
 44 H     1 shells
 l=0 nsto= 1
    1       1.200000000000        1.000000000000
 45 H     1 shells
 l=0 nsto= 1
    1       1.200000000000        1.000000000000
 46 H     1 shells
 l=0 nsto= 1
    1       1.200000000000        1.000000000000
 47 H     1 shells
 l=0 nsto= 1
    1       1.200000000000        1.000000000000
 48 H     1 shells
 l=0 nsto= 1
    1       1.200000000000        1.000000000000
 49 H     1 shells
 l=0 nsto= 1
    1       1.200000000000        1.000000000000
 50 H     1 shells
 l=0 nsto= 1
    1       1.200000000000        1.000000000000
 51 H     1 shells
 l=0 nsto= 1
    1       1.200000000000        1.000000000000
 52 H     1 shells
 l=0 nsto= 1
    1       1.200000000000        1.000000000000
 53 H     1 shells
 l=0 nsto= 1
    1       1.200000000000        1.000000000000
------------------------------------------------------------------------------
                           ORCA NDO INTEGRAL CALCULATION
------------------------------------------------------------------------------

--------------
NDO PARAMETERS
--------------

Gamma integral treatment              ... Mataga-Nishimoto
Nuclear repulsuion treatment          ... Direct (ZA*ZB/RAB)
Interaction factors:
s-s (sigma) =    1.0000
s-p (sigma) =    1.0000
s-d (sigma) =    1.0000
p-p (sigma) =    1.2670  p-p(pi) =    0.5850
p-d (sigma) =    1.0000  p-d(pi) =    1.0000
d-d (sigma) =    1.0000  d-d(pi) =    1.0000 d-d (delta) =    1.0000

fGamma parameter for Mataga-Nishimoto gamma integrals:    1.2000

--------------------------
Parameters for Element H :
--------------------------
 One-electron parameters (in eV)
  U(s)  =   -13.060000 Beta(s) =    12.000000 Neff(s) =     1.000000
 One-center electron repulsion parameters (in eV)
  G(s,s)=    12.850000
--------------------------
Parameters for Element C :
--------------------------
 One-electron parameters (in eV)
  U(s)  =   -50.870766 Beta(s) =    17.000000 Neff(s) =     2.000000
  U(p)  =   -41.599980 Beta(p) =    17.000000 Neff(p) =     2.000000 
 One-center electron repulsion parameters (in eV)
  G(s,s)=    11.110000
  G(s,p)=    11.110000 G(p,p)  =    11.110000
 Slater-Condon parameters (in eV)
 F2(p,p)=     4.5098 G1(s,p)=    6.8977
--------------------------
Parameters for Element S :
--------------------------
 One-electron parameters (in eV)
  U(s)  =   -69.509597 Beta(s) =    15.000000 Neff(s) =     2.000000
  U(p)  =   -60.725746 Beta(p) =    15.000000 Neff(p) =     4.000000 
 One-center electron repulsion parameters (in eV)
  G(s,s)=    10.090000
  G(s,p)=    10.090000 G(p,p)  =    10.090000
 Slater-Condon parameters (in eV)
 F2(p,p)=     4.5377 G1(s,p)=    3.0756

 Number of atoms                    ....   54
 Number of basis functions          ....  120

 Overlap integrals                  .... done
 One electron matrix                .... done
 Nuclear repulsion                  .... done
 Integral list                      .... done
 Electron-electron repulsion        .... done
-------------------------------------------------------------------------------
                                 ORCA SCF
-------------------------------------------------------------------------------

------------
SCF SETTINGS
------------
Hamiltonian:
 ZDO-Hamiltonian        Method          .... INDO


General Settings:
 Integral files         IntName         .... /home/mattyjones/Software/morphct/tests/output_EZ/donor_polymer/chromophores/input_orca/pair/00001-00016
 Hartree-Fock type      HFTyp           .... RHF
 Total Charge           Charge          ....    0
 Multiplicity           Mult            ....    1
 Number of Electrons    NEL             ....  124
 Basis Dimension        Dim             ....  120
 Nuclear Repulsion      ENuc            ....    610.8961165119 Eh

Convergence Acceleration:
 DIIS                   CNVDIIS         .... on
   Start iteration      DIISMaxIt       ....    12
   Startup error        DIISStart       ....  0.200000
   # of expansion vecs  DIISMaxEq       ....     5
   Bias factor          DIISBfac        ....   1.050
   Max. coefficient     DIISMaxC        ....  10.000
 Newton-Raphson         CNVNR           .... off
 SOSCF                  CNVSOSCF        .... on
   Start iteration      SOSCFMaxIt      ....   150
   Startup grad/error   SOSCFStart      ....  0.003300
 Level Shifting         CNVShift        .... on
   Level shift para.    LevelShift      ....    0.2500
   Turn off err/grad.   ShiftErr        ....    0.0010
 Zerner damping         CNVZerner       .... off
 Static damping         CNVDamp         .... on
   Fraction old density DampFac         ....    0.7000
   Max. Damping (<1)    DampMax         ....    0.9800
   Min. Damping (>=0)   DampMin         ....    0.0000
   Turn off err/grad.   DampErr         ....    0.1000
 Fernandez-Rico         CNVRico         .... off

SCF Procedure:
 Maximum # iterations   MaxIter         ....   125
 SCF integral mode      SCFMode         .... Conventional
 Integral Buffer length BufferLength    .... 1048576
 Integral index format  IndFormat       ....     0
 Integral value format  ValFormat       ....     0
 Integral Storage       Thresh          ....  1.000e-08 Eh

Convergence Tolerance:
 Convergence Check Mode ConvCheckMode   .... Total+1el-Energy
 Convergence forced     ConvForced      .... 0
 Energy Change          TolE            ....  1.000e-06 Eh
 1-El. energy change                    ....  1.000e-03 Eh
 Orbital Gradient       TolG            ....  5.000e-05
 Orbital Rotation angle TolX            ....  5.000e-05
 DIIS Error             TolErr          ....  1.000e-06


Diagonalization of the overlap matrix:
Smallest eigenvalue                        ... 1.697e-01
Time for diagonalization                   ...    0.003 sec
Threshold for overlap eigenvalues          ... 1.000e-08
Number of eigenvalues below threshold      ... 0
Time for construction of square roots      ...    0.000 sec
Total time needed                          ...    0.003 sec

-------------------------------
INITIAL GUESS: EXTENDED HUECKEL
-------------------------------
EHT matrix was read from disk
EHT matrix was diagonalized
Initial density was built
                      ------------------
                      INITIAL GUESS DONE
                      ------------------

 InCore treatment chosen:
   Memory dedicated               ...    1024 MB
   Memory needed                  ...      0 MB
   Number of tiny    integrals    ...       0
   Number of small   integrals    ...       0
   Number of regular integrals    ...    7392

--------------
SCF ITERATIONS
--------------
ITER       Energy         Delta-E        Max-DP      RMS-DP      [F,P]     Damp
  0    -22.6946935349   0.000000000000 0.04129968  0.00144184  0.0846638 0.7000
  1    -22.7364530114  -0.041759476503 0.03883151  0.00135796  0.0601703 0.7000
                               ***Turning on DIIS***
  2    -22.7673555922  -0.030902580761 0.09799866  0.00348520  0.0392747 0.0000
  3    -22.8497239571  -0.082368364870 0.01839409  0.00071706  0.0190204 0.0000
  4    -22.8326018851   0.017122072006 0.01151977  0.00049359  0.0064182 0.0000
  5    -22.8500217957  -0.017419910645 0.00739648  0.00033425  0.0036944 0.0000
  6    -22.8521238985  -0.002102102807 0.00569283  0.00023719  0.0020388 0.0000
                      *** Initiating the SOSCF procedure ***
                           *** Shutting down DIIS ***
                      *** Re-Reading the Fockian *** 
                      *** Removing any level shift *** 
ITER      Energy       Delta-E        Grad      Rot      Max-DP    RMS-DP
  7    -22.84828827   0.0038356244  0.003009  0.003009  0.003396  0.000134
  8    -22.84667930   0.0016089730  0.000805  0.002212  0.001686  0.000062
  9    -22.84669389  -0.0000145911  0.000358  0.002172  0.001894  0.000066
 10    -22.84669923  -0.0000053397  0.000032  0.000085  0.000117  0.000004
                 **** Energy Check signals convergence ****
              ***Rediagonalizing the Fockian in SOSCF/NRSCF***

               *****************************************************
               *                     SUCCESS                       *
               *           SCF CONVERGED AFTER  11 CYCLES          *
               *****************************************************


----------------
TOTAL SCF ENERGY
----------------

Total Energy       :          -22.84669928 Eh            -621.69029 eV

Components:
Nuclear Repulsion  :          610.89611651 Eh           16623.32844 eV
Electronic Energy  :         -633.74281579 Eh          -17245.01874 eV
One Electron Energy:        -1177.20134886 Eh          -32033.27724 eV
Two Electron Energy:          543.45853307 Eh           14788.25851 eV


---------------
SCF CONVERGENCE
---------------

  Last Energy change         ...   -4.8753e-08  Tolerance :   1.0000e-06
  Last MAX-Density change    ...    5.3219e-05  Tolerance :   1.0000e-05
  Last RMS-Density change    ...    1.3155e-06  Tolerance :   1.0000e-06
  Last Orbital Gradient      ...    1.2299e-05  Tolerance :   5.0000e-05
  Last Orbital Rotation      ...    2.4310e-05  Tolerance :   5.0000e-05

             **** THE GBW FILE WAS UPDATED (/home/mattyjones/Software/morphct/tests/output_EZ/donor_polymer/chromophores/input_orca/pair/00001-00016.gbw) ****
             **** DENSITY FILE WAS UPDATED (/home/mattyjones/Software/morphct/tests/output_EZ/donor_polymer/chromophores/input_orca/pair/00001-00016.scfp.tmp) ****
             **** ENERGY FILE WAS UPDATED (/home/mattyjones/Software/morphct/tests/output_EZ/donor_polymer/chromophores/input_orca/pair/00001-00016.en.tmp) ****
----------------
ORBITAL ENERGIES
----------------

  NO   OCC          E(Eh)            E(eV) 
   0   2.0000      -1.557880       -42.3921 
   1   2.0000      -1.554809       -42.3085 
   2   2.0000      -1.416337       -38.5405 
   3   2.0000      -1.371198       -37.3122 
   4   2.0000      -1.292245       -35.1638 
   5   2.0000      -1.273517       -34.6542 
   6   2.0000      -1.197458       -32.5845 
   7   2.0000      -1.172572       -31.9073 
   8   2.0000      -1.115024       -30.3413 
   9   2.0000      -1.106804       -30.1177 
  10   2.0000      -1.050719       -28.5915 
  11   2.0000      -1.038900       -28.2699 
  12   2.0000      -0.980342       -26.6765 
  13   2.0000      -0.956928       -26.0393 
  14   2.0000      -0.915242       -24.9050 
  15   2.0000      -0.886271       -24.1167 
  16   2.0000      -0.868112       -23.6225 
  17   2.0000      -0.840601       -22.8739 
  18   2.0000      -0.835772       -22.7425 
  19   2.0000      -0.826350       -22.4861 
  20   2.0000      -0.783947       -21.3323 
  21   2.0000      -0.768160       -20.9027 
  22   2.0000      -0.735685       -20.0190 
  23   2.0000      -0.719290       -19.5729 
  24   2.0000      -0.690610       -18.7924 
  25   2.0000      -0.688706       -18.7406 
  26   2.0000      -0.664586       -18.0843 
  27   2.0000      -0.660692       -17.9783 
  28   2.0000      -0.654683       -17.8148 
  29   2.0000      -0.644007       -17.5243 
  30   2.0000      -0.624583       -16.9958 
  31   2.0000      -0.614565       -16.7232 
  32   2.0000      -0.586797       -15.9676 
  33   2.0000      -0.579922       -15.7805 
  34   2.0000      -0.576812       -15.6958 
  35   2.0000      -0.574494       -15.6328 
  36   2.0000      -0.573261       -15.5992 
  37   2.0000      -0.571037       -15.5387 
  38   2.0000      -0.555542       -15.1171 
  39   2.0000      -0.552376       -15.0309 
  40   2.0000      -0.541816       -14.7436 
  41   2.0000      -0.531669       -14.4674 
  42   2.0000      -0.526540       -14.3279 
  43   2.0000      -0.515380       -14.0242 
  44   2.0000      -0.503975       -13.7139 
  45   2.0000      -0.499133       -13.5821 
  46   2.0000      -0.495592       -13.4857 
  47   2.0000      -0.494838       -13.4652 
  48   2.0000      -0.488627       -13.2962 
  49   2.0000      -0.488535       -13.2937 
  50   2.0000      -0.485026       -13.1982 
  51   2.0000      -0.472468       -12.8565 
  52   2.0000      -0.468448       -12.7471 
  53   2.0000      -0.460676       -12.5356 
  54   2.0000      -0.449532       -12.2324 
  55   2.0000      -0.445251       -12.1159 
  56   2.0000      -0.437941       -11.9170 
  57   2.0000      -0.434020       -11.8103 
  58   2.0000      -0.358942        -9.7673 
  59   2.0000      -0.356150        -9.6913 
  60   2.0000      -0.305872        -8.3232 
  61   2.0000      -0.304860        -8.2957 
  62   0.0000       0.005194         0.1413 
  63   0.0000       0.007695         0.2094 
  64   0.0000       0.038165         1.0385 
  65   0.0000       0.068913         1.8752 
  66   0.0000       0.071354         1.9416 
  67   0.0000       0.075751         2.0613 
  68   0.0000       0.078782         2.1438 
  69   0.0000       0.088235         2.4010 
  70   0.0000       0.097439         2.6514 
  71   0.0000       0.105540         2.8719 
  72   0.0000       0.106300         2.8926 
  73   0.0000       0.108955         2.9648 
  74   0.0000       0.122582         3.3356 
  75   0.0000       0.123078         3.3491 
  76   0.0000       0.141301         3.8450 
  77   0.0000       0.142739         3.8841 
  78   0.0000       0.155452         4.2301 
  79   0.0000       0.158791         4.3209 
  80   0.0000       0.166282         4.5248 
  81   0.0000       0.166299         4.5252 
  82   0.0000       0.168248         4.5783 
  83   0.0000       0.173542         4.7223 
  84   0.0000       0.201626         5.4865 
  85   0.0000       0.204956         5.5771 
  86   0.0000       0.226704         6.1689 
  87   0.0000       0.231290         6.2937 
  88   0.0000       0.233097         6.3429 
  89   0.0000       0.236214         6.4277 
  90   0.0000       0.236609         6.4385 
  91   0.0000       0.237106         6.4520 
  92   0.0000       0.239127         6.5070 
  93   0.0000       0.239206         6.5091 
  94   0.0000       0.239797         6.5252 
  95   0.0000       0.240136         6.5344 
  96   0.0000       0.241355         6.5676 
  97   0.0000       0.242426         6.5968 
  98   0.0000       0.242953         6.6111 
  99   0.0000       0.243691         6.6312 
 100   0.0000       0.244678         6.6580 
 101   0.0000       0.245863         6.6903 
 102   0.0000       0.256168         6.9707 
 103   0.0000       0.264368         7.1938 
 104   0.0000       0.265197         7.2164 
 105   0.0000       0.267444         7.2775 
 106   0.0000       0.272109         7.4044 
 107   0.0000       0.287697         7.8286 
 108   0.0000       0.297660         8.0997 
 109   0.0000       0.298696         8.1279 
 110   0.0000       0.308264         8.3883 
 111   0.0000       0.310461         8.4481 
 112   0.0000       0.338787         9.2189 
 113   0.0000       0.345333         9.3970 
 114   0.0000       0.347990         9.4693 
 115   0.0000       0.361901         9.8478 
 116   0.0000       0.400533        10.8990 
 117   0.0000       0.420389        11.4394 
 118   0.0000       0.427835        11.6420 
 119   0.0000       0.437455        11.9037 
-------
TIMINGS
-------

Total SCF time: 0 days 0 hours 0 min 0 sec 

Total time                  ....       0.124 sec
Sum of individual times     ....       0.104 sec  ( 83.8%)

Fock matrix formation       ....       0.041 sec  ( 32.8%)
Diagonalization             ....       0.033 sec  ( 26.6%)
Density matrix formation    ....       0.003 sec  (  2.4%)
Population analysis         ....       0.000 sec  (  0.0%)
Initial guess               ....       0.003 sec  (  2.4%)
Orbital Transformation      ....       0.000 sec  (  0.0%)
Orbital Orthonormalization  ....       0.000 sec  (  0.0%)
DIIS solution               ....       0.005 sec  (  3.8%)
SOSCF solution              ....       0.019 sec  ( 15.7%)

-------------------------   --------------------
FINAL SINGLE POINT ENERGY       -22.846699280675
-------------------------   --------------------


                            ***************************************
                            *     ORCA property calculations      *
                            ***************************************

                                    ---------------------
                                    Active property flags
                                    ---------------------
   (+) Dipole Moment


------------------------------------------------------------------------------
                       ORCA ELECTRIC PROPERTIES CALCULATION
------------------------------------------------------------------------------

Dipole Moment Calculation                       ... on
Quadrupole Moment Calculation                   ... off
Polarizability Calculation                      ... off
GBWName                                         ... /home/mattyjones/Software/morphct/tests/output_EZ/donor_polymer/chromophores/input_orca/pair/00001-00016.gbw
Electron density file                           ... /home/mattyjones/Software/morphct/tests/output_EZ/donor_polymer/chromophores/input_orca/pair/00001-00016.scfp.tmp
The origin for moment calculation is the CENTER OF MASS  = (-1.914459, -1.441898 -1.140879)

-------------
DIPOLE MOMENT
-------------
                                X             Y             Z
Electronic contribution:   -203.83805    -176.82448    -118.70019
Nuclear contribution   :    113.95207      84.53336      63.69087
                        -----------------------------------------
Total Dipole Moment    :    -89.88598     -92.29112     -55.00933
                        -----------------------------------------
Magnitude (a.u.)       :    140.08272
Magnitude (Debye)      :    356.06197


Timings for individual modules:

Sum of individual times         ...        0.175 sec (=   0.003 min)
STO integral calculation        ...        0.036 sec (=   0.001 min)  20.6 %
SCF iterations                  ...        0.139 sec (=   0.002 min)  79.4 %
                             ****ORCA TERMINATED NORMALLY****
TOTAL RUN TIME: 0 days 0 hours 0 minutes 0 seconds 462 msec

