
                                 *****************
                                 * O   R   C   A *
                                 *****************

           --- An Ab Initio, DFT and Semiempirical electronic structure package ---

                  #######################################################
                  #                        -***-                        #
                  #  Department of molecular theory and spectroscopy    #
                  #              Directorship: Frank Neese              #
                  # Max Planck Institute for Chemical Energy Conversion #
                  #                  D-45470 Muelheim/Ruhr              #
                  #                       Germany                       #
                  #                                                     #
                  #                  All rights reserved                #
                  #                        -***-                        #
                  #######################################################


                         Program Version 4.0.1.2 - RELEASE -


 With contributions from (in alphabetic order):
   Daniel Aravena         : Magnetic Properties
   Michael Atanasov       : Ab Initio Ligand Field Theory
   Ute Becker             : Parallelization
   Martin Brehm           : Molecular dynamics
   Dmytro Bykov           : SCF Hessian
   Vijay G. Chilkuri      : MRCI spin determinant printing
   Dipayan Datta          : RHF DLPNO-CCSD density
   Achintya Kumar Dutta   : EOM-CC, STEOM-CC
   Dmitry Ganyushin       : Spin-Orbit,Spin-Spin,Magnetic field MRCI
   Yang Guo               : DLPNO-NEVPT2, CIM, IAO-localization
   Andreas Hansen         : Spin unrestricted coupled pair/coupled cluster methods
   Lee Huntington         : MR-EOM, pCC
   Robert Izsak           : Overlap fitted RIJCOSX, COSX-SCS-MP3, EOM
   Christian Kollmar      : KDIIS, OOCD, Brueckner-CCSD(T), CCSD density
   Simone Kossmann        : Meta GGA functionals, TD-DFT gradient, OOMP2, MP2 Hessian
   Martin Krupicka        : AUTO-CI
   Dagmar Lenk            : GEPOL surface
   Dimitrios Liakos       : Extrapolation schemes; parallel MDCI
   Dimitrios Manganas     : ROCIS; embedding schemes
   Dimitrios Pantazis     : SARC Basis sets
   Taras Petrenko         : DFT Hessian,TD-DFT gradient, ASA, ECA, R-Raman, ABS, FL, XAS/XES, NRVS
   Peter Pinski           : DLPNO-MP2
   Christoph Reimann      : Effective Core Potentials
   Marius Retegan         : Local ZFS, SOC
   Christoph Riplinger    : Optimizer, TS searches, QM/MM, DLPNO-CCSD(T), (RO)-DLPNO pert. Triples
   Tobias Risthaus        : Range-separated hybrids, TD-DFT gradient, RPA, STAB
   Michael Roemelt        : Restricted open shell CIS
   Masaaki Saitow         : Open-shell DLPNO
   Barbara Sandhoefer     : DKH picture change effects
   Kantharuban Sivalingam : CASSCF convergence, NEVPT2, FIC-MRCI
   Georgi Stoychev        : AutoAux
   Boris Wezisla          : Elementary symmetry handling
   Frank Wennmohs         : Technical directorship


 We gratefully acknowledge several colleagues who have allowed us to
 interface, adapt or use parts of their codes:
   Stefan Grimme, W. Hujo, H. Kruse,             : VdW corrections, initial TS optimization,
                  C. Bannwarth                     DFT functionals, gCP, sTDA/sTD-DF
   Ed Valeev                                     : LibInt (2-el integral package), F12 methods
   Garnet Chan, S. Sharma, J. Yang, R. Olivares  : DMRG
   Ulf Ekstrom                                   : XCFun DFT Library
   Mihaly Kallay                                 : mrcc  (arbitrary order and MRCC methods)
   Andreas Klamt, Michael Diedenhofen            : otool_cosmo (COSMO solvation model)
   Jiri Pittner, Ondrej Demel                    : Mk-CCSD
   Frank Weinhold                                : gennbo (NPA and NBO analysis)
   Christopher J. Cramer and Donald G. Truhlar   : smd solvation model


 Your calculation uses the libint2 library for the computation of 2-el integrals
 For citations please refer to: http://libint.valeyev.net

 This ORCA versions uses:
   CBLAS   interface :  Fast vector & matrix operations
   LAPACKE interface :  Fast linear algebra routines
   SCALAPACK package :  Parallel linear algebra routines


leaving
Your calculation utilizes the basis: def2-SVP
   F. Weigend and R. Ahlrichs, Phys. Chem. Chem. Phys. 7, 3297 (2005).

================================================================================
                                        WARNINGS
                       Please study these warnings very carefully!
================================================================================

Warning: TCutStore was < 0. Adjusted to Thresh (uncritical)

WARNING: Direct SCF is incompatible with Method<>HF and Method<>DFT
  ===> : conventional SCF is chosen

WARNING: The NDO methods need Guess=HUECKEL or Guess=HCORE or Guess=MOREAD
  ===> : Guess is set to Hueckel

WARNING: The NDO methods need %rel::SOCType==1
  ===> : %rel::SOCType is set to 1

WARNING: The NDO methods cannot have frozencore=1
  ===> : %method FrozenCore=0 end

INFO   : the flag for use of LIBINT has been found!

================================================================================
                                       INPUT FILE
================================================================================
NAME = /home/mattyjones/Software/morphct/tests/output_EZ/donor_polymer/chromophores/input_orca/pair/00000-00001.inp
|  1> # ================================================================
|  2> # Orca input file made by Matty Jones
|  3> # ================================================================
|  4> ! ZINDO/S 
|  5> ! NOPOP
|  6> ! NOMOPRINT
|  7> * xyz 0   1
|  8>  C  -3.98781  1.02110  -0.87152
|  9>  C  -3.43319  0.15450  -1.81453
| 10>  C  -2.28914  -0.56366  -1.34584
| 11>  C  -1.93862  -0.26261  -0.02606
| 12>  S  -3.04705  0.86048  0.48432
| 13>  H  -3.72696  0.31508  -2.90463
| 14>  C  -1.68205  -1.56874  -2.46879
| 15>  C  -2.88643  -1.85078  -3.72164
| 16>  C  -4.26338  -2.85424  -3.62878
| 17>  H  -3.90034  -3.92906  -3.85381
| 18>  H  -4.59711  -2.80603  -2.51944
| 19>  H  -2.22020  -2.45746  -4.47544
| 20>  H  -3.15514  -0.89144  -4.29100
| 21>  H  -1.41992  -2.59456  -2.00799
| 22>  H  -0.75316  -1.10799  -2.97762
| 23>  C  -5.59947  -2.57093  -4.55148
| 24>  C  -5.83624  -1.18165  -5.50825
| 25>  C  -7.31614  -1.14373  -6.33322
| 26>  H  -8.09106  -1.79236  -5.77064
| 27>  H  -7.16715  -1.55738  -7.40346
| 28>  H  -7.69444  -0.05144  -6.39019
| 29>  H  -4.99141  -1.13163  -6.28666
| 30>  H  -5.79185  -0.26166  -4.81865
| 31>  H  -5.70000  -3.45978  -5.29022
| 32>  H  -6.51555  -2.59467  -3.83849
| 33>  C  -0.55912  -0.56221  0.99513
| 34>  C  0.62235  0.10731  1.31727
| 35>  C  1.45091  -0.58771  2.25252
| 36>  C  0.92101  -1.81221  2.67100
| 37>  S  -0.52443  -1.96832  1.87304
| 38>  H  0.91335  1.12582  0.88948
| 39>  C  2.92330  -0.23720  2.93234
| 40>  C  3.89566  1.03673  3.68994
| 41>  C  5.13975  2.07023  3.10731
| 42>  H  4.72590  2.58923  2.16462
| 43>  H  6.01199  1.37241  2.80254
| 44>  H  4.39275  0.49951  4.58307
| 45>  H  3.08975  1.76341  4.08219
| 46>  H  2.98127  -0.94547  3.85423
| 47>  H  3.70570  -0.60564  2.13770
| 48>  C  5.74267  3.21685  4.12519
| 49>  C  6.79103  2.92734  5.45184
| 50>  C  8.47492  2.93322  5.31352
| 51>  H  8.77533  3.00914  4.20098
| 52>  H  8.89292  1.95119  5.76446
| 53>  H  8.90945  3.83373  5.89801
| 54>  H  6.54227  3.76028  6.21647
| 55>  H  6.48656  1.90857  5.89749
| 56>  H  4.83841  3.78361  4.57473
| 57>  H  6.33970  3.95860  3.45983
| 58>  H  -4.83238  1.64946  -0.99587
| 59>  H  1.35279  -2.49724  3.35504
| 60> *
| 61> 
| 62>                          ****END OF INPUT****
================================================================================

                       ****************************
                       * Single Point Calculation *
                       ****************************

---------------------------------
CARTESIAN COORDINATES (ANGSTROEM)
---------------------------------
  C     -3.987810    1.021100   -0.871520
  C     -3.433190    0.154500   -1.814530
  C     -2.289140   -0.563660   -1.345840
  C     -1.938620   -0.262610   -0.026060
  S     -3.047050    0.860480    0.484320
  H     -3.726960    0.315080   -2.904630
  C     -1.682050   -1.568740   -2.468790
  C     -2.886430   -1.850780   -3.721640
  C     -4.263380   -2.854240   -3.628780
  H     -3.900340   -3.929060   -3.853810
  H     -4.597110   -2.806030   -2.519440
  H     -2.220200   -2.457460   -4.475440
  H     -3.155140   -0.891440   -4.291000
  H     -1.419920   -2.594560   -2.007990
  H     -0.753160   -1.107990   -2.977620
  C     -5.599470   -2.570930   -4.551480
  C     -5.836240   -1.181650   -5.508250
  C     -7.316140   -1.143730   -6.333220
  H     -8.091060   -1.792360   -5.770640
  H     -7.167150   -1.557380   -7.403460
  H     -7.694440   -0.051440   -6.390190
  H     -4.991410   -1.131630   -6.286660
  H     -5.791850   -0.261660   -4.818650
  H     -5.700000   -3.459780   -5.290220
  H     -6.515550   -2.594670   -3.838490
  C     -0.559120   -0.562210    0.995130
  C      0.622350    0.107310    1.317270
  C      1.450910   -0.587710    2.252520
  C      0.921010   -1.812210    2.671000
  S     -0.524430   -1.968320    1.873040
  H      0.913350    1.125820    0.889480
  C      2.923300   -0.237200    2.932340
  C      3.895660    1.036730    3.689940
  C      5.139750    2.070230    3.107310
  H      4.725900    2.589230    2.164620
  H      6.011990    1.372410    2.802540
  H      4.392750    0.499510    4.583070
  H      3.089750    1.763410    4.082190
  H      2.981270   -0.945470    3.854230
  H      3.705700   -0.605640    2.137700
  C      5.742670    3.216850    4.125190
  C      6.791030    2.927340    5.451840
  C      8.474920    2.933220    5.313520
  H      8.775330    3.009140    4.200980
  H      8.892920    1.951190    5.764460
  H      8.909450    3.833730    5.898010
  H      6.542270    3.760280    6.216470
  H      6.486560    1.908570    5.897490
  H      4.838410    3.783610    4.574730
  H      6.339700    3.958600    3.459830
  H     -4.832380    1.649460   -0.995870
  H      1.352790   -2.497240    3.355040

----------------------------
CARTESIAN COORDINATES (A.U.)
----------------------------
  NO LB      ZA    FRAG     MASS         X           Y           Z
   0 C     4.0000    0    12.011   -7.535869    1.929599   -1.646934
   1 C     4.0000    0    12.011   -6.487789    0.291963   -3.428965
   2 C     4.0000    0    12.011   -4.325848   -1.065163   -2.543269
   3 C     4.0000    0    12.011   -3.663461   -0.496261   -0.049246
   4 S     6.0000    0    32.060   -5.758090    1.626072    0.915232
   5 H     1.0000    0     1.008   -7.042934    0.595415   -5.488955
   6 C     4.0000    0    12.011   -3.178614   -2.964489   -4.665337
   7 C     4.0000    0    12.011   -5.454562   -3.497467   -7.032880
   8 C     4.0000    0    12.011   -8.056621   -5.393732   -6.857400
   9 H     1.0000    0     1.008   -7.370574   -7.424847   -7.282645
  10 H     1.0000    0     1.008   -8.687279   -5.302628   -4.761052
  11 H     1.0000    0     1.008   -4.195570   -4.643926   -8.457356
  12 H     1.0000    0     1.008   -5.962351   -1.684577   -8.108815
  13 H     1.0000    0     1.008   -2.683260   -4.903008   -3.794551
  14 H     1.0000    0     1.008   -1.423266   -2.093798   -5.626886
  15 C     4.0000    0    12.011  -10.581465   -4.858354   -8.601051
  16 C     4.0000    0    12.011  -11.028895   -2.232995  -10.409084
  17 C     4.0000    0    12.011  -13.825501   -2.161336  -11.968051
  18 H     1.0000    0     1.008  -15.289888   -3.387070  -10.904929
  19 H     1.0000    0     1.008  -13.543951   -2.943022  -13.990512
  20 H     1.0000    0     1.008  -14.540384   -0.097208  -12.075709
  21 H     1.0000    0     1.008   -9.432398   -2.138471  -11.880066
  22 H     1.0000    0     1.008  -10.945010   -0.494466   -9.105929
  23 H     1.0000    0     1.008  -10.771439   -6.538037   -9.997067
  24 H     1.0000    0     1.008  -12.312605   -4.903216   -7.253695
  25 C     4.0000    0    12.011   -1.056584   -1.062423    1.880523
  26 C     4.0000    0    12.011    1.176071    0.202787    2.489280
  27 C     4.0000    0    12.011    2.741823   -1.110611    4.256646
  28 C     4.0000    0    12.011    1.740457   -3.424581    5.047459
  29 S     6.0000    0    32.060   -0.991029   -3.719586    3.539533
  30 H     1.0000    0     1.008    1.725981    2.127491    1.680874
  31 C     4.0000    0    12.011    5.524236   -0.448243    5.541320
  32 C     4.0000    0    12.011    7.361731    1.959136    6.972976
  33 C     4.0000    0    12.011    9.712720    3.912168    5.871965
  34 H     1.0000    0     1.008    8.930657    4.892936    4.090539
  35 H     1.0000    0     1.008   11.361015    2.593479    5.296033
  36 H     1.0000    0     1.008    8.301094    0.943937    8.660747
  37 H     1.0000    0     1.008    5.838781    3.332362    7.714221
  38 H     1.0000    0     1.008    5.633784   -1.786679    7.283439
  39 H     1.0000    0     1.008    7.002758   -1.144494    4.039668
  40 C     4.0000    0    12.011   10.852074    6.078966    7.795479
  41 C     4.0000    0    12.011   12.833187    5.531871   10.302485
  42 C     4.0000    0    12.011   16.015278    5.542982   10.041098
  43 H     1.0000    0     1.008   16.582970    5.686450    7.938702
  44 H     1.0000    0     1.008   16.805183    3.687215   10.893251
  45 H     1.0000    0     1.008   16.836421    7.244700   11.145624
  46 H     1.0000    0     1.008   12.363099    7.105899   11.747426
  47 H     1.0000    0     1.008   12.257822    3.606675   11.144641
  48 H     1.0000    0     1.008    9.143270    7.149987    8.644987
  49 H     1.0000    0     1.008   11.980297    7.480670    6.538131
  50 H     1.0000    0     1.008   -9.131875    3.117028   -1.881922
  51 H     1.0000    0     1.008    2.556403   -4.719100    6.340107

--------------------------------
INTERNAL COORDINATES (ANGSTROEM)
--------------------------------
 C      0   0   0     0.000000000000     0.00000000     0.00000000
 C      1   0   0     1.395659974528     0.00000000     0.00000000
 C      2   1   0     1.429781278448   114.10227641     0.00000000
 C      3   2   1     1.398325649232   113.69261097     0.00000000
 S      1   2   3     1.658050140255   105.47953918     0.00000000
 H      2   1   3     1.140352909980   117.13501330   197.09140198
 C      3   2   1     1.624734063470   112.52816850   179.54259611
 C      7   3   2     1.760599576423   109.59218332   342.21945205
 C      8   7   3     1.706325365720   127.40949925   283.84391378
 H      9   8   7     1.156578823470   106.41676266   277.47294888
 H      9   8   7     1.159454678976   105.06347083    32.27763761
 H      8   7   3     1.174792524363    98.70710642   172.88687441
 H      8   7   3     1.147479459206   112.29332890    63.49968526
 H      7   3   2     1.154710114834   111.01240919   223.90112541
 H      7   3   2     1.155004399775   110.99069711   100.79225965
 C      9   8   7     1.648264643254   121.50579175   153.84167974
 C     16   9   8     1.703398891687   124.56150492   351.54686650
 C     17  16   9     1.694732261244   114.39633890   180.96559688
 H     18  17  16     1.156597656793   109.61768655    25.20870442
 H     18  17  16     1.157029818198   109.25817673   265.07332492
 H     18  17  16     1.157347793448   109.29985107   145.25960990
 H     17  16   9     1.149852972079   108.27587062    60.33440866
 H     17  16   9     1.150608635549   108.06666547   301.17493697
 H     16   9   8     1.160128178694   107.15860188   114.02508906
 H     16   9   8     1.161086083846   106.99465887   229.51345025
 C      4   3   2     1.742300039058   135.61418916   192.69234764
 C     26   4   3     1.395672802236   136.30649757    91.96925748
 C     27  26   4     1.429775169913   114.10149978   179.51114701
 C     28  27  26     1.398327490397   113.69279293     0.00000000
 S     26   4   3     1.658033382143   118.21210013   271.43437560
 H     27  26   4     1.142386932786   123.84132991     0.09503160
 C     28  27  26     1.659200049602   132.81075081   179.41794945
 C     32  28  27     1.772664484470   144.45873697    44.36134621
 C     33  32  28     1.719110204437   133.16949147   259.99655818
 H     34  33  32     1.152951542173   106.73610476    53.04990883
 H     34  33  32     1.157860148248   105.78639949   296.99065629
 H     33  32  28     1.154722907628   103.43544837   136.71620891
 H     33  32  28     1.153869495654   102.40139750    23.09487707
 H     32  28  27     1.163996600468   103.89586805   162.59000123
 H     32  28  27     1.174457544231   104.34026144   275.84247708
 C     34  33  32     1.647522274569   118.28447322   176.08061392
 C     41  34  33     1.715480968184   125.73074228    73.91859231
 C     42  41  34     1.689571699840   123.03586491    89.84883564
 H     43  42  41     1.154883226175   109.77582319   352.18801133
 H     43  42  41     1.158643087624   108.94992293   232.06428473
 H     43  42  41     1.158172327894   109.59168097   112.75935746
 H     42  41  34     1.157726054859   104.95318958   209.96413836
 H     42  41  34     1.152908589742   106.65862765   325.40972566
 H     41  34  33     1.158010905303   107.13944389   310.10446471
 H     41  34  33     1.161611730743   106.17762102   194.73014157
 H      1   2   3     1.059998913679   127.26061455   180.00019352
 H     29  28  27     1.060005090035   127.20575347   180.00072186

---------------------------
INTERNAL COORDINATES (A.U.)
---------------------------
 C      0   0   0     0.000000000000     0.00000000     0.00000000
 C      1   0   0     2.637415127934     0.00000000     0.00000000
 C      2   1   0     2.701895047674   114.10227641     0.00000000
 C      3   2   1     2.642452523086   113.69261097     0.00000000
 S      1   2   3     3.133260681392   105.47953918     0.00000000
 H      2   1   3     2.154954695882   117.13501330   197.09140198
 C      3   2   1     3.070302420411   112.52816850   179.54259611
 C      7   3   2     3.327051030937   109.59218332   342.21945205
 C      8   7   3     3.224487636574   127.40949925   283.84391378
 H      9   8   7     2.185617228652   106.41676266   277.47294888
 H      9   8   7     2.191051807959   105.06347083    32.27763761
 H      8   7   3     2.220036135225    98.70710642   172.88687441
 H      8   7   3     2.168421922200   112.29332890    63.49968526
 H      7   3   2     2.182085881105   111.01240919   223.90112541
 H      7   3   2     2.182641999049   110.99069711   100.79225965
 C      9   8   7     3.114768771975   121.50579175   153.84167974
 C     16   9   8     3.218957402113   124.56150492   351.54686650
 C     17  16   9     3.202579844072   114.39633890   180.96559688
 H     18  17  16     2.185652818475   109.61768655    25.20870442
 H     18  17  16     2.186469485175   109.25817673   265.07332492
 H     18  17  16     2.187070371316   109.29985107   145.25960990
 H     17  16   9     2.172907211506   108.27587062    60.33440866
 H     17  16   9     2.174335208512   108.06666547   301.17493697
 H     16   9   8     2.192324537977   107.15860188   114.02508906
 H     16   9   8     2.194134716375   106.99465887   229.51345025
 C      4   3   2     3.292469916939   135.61418916   192.69234764
 C     26   4   3     2.637439368788   136.30649757    91.96925748
 C     27  26   4     2.701883504216   114.10149978   179.51114701
 C     28  27  26     2.642456002384   113.69279293     0.00000000
 S     26   4   3     3.133229013149   118.21210013   271.43437560
 H     27  26   4     2.158798441936   123.84132991     0.09503160
 C     28  27  26     3.135433695137   132.81075081   179.41794945
 C     32  28  27     3.349850402976   144.45873697    44.36134621
 C     33  32  28     3.248647480416   133.16949147   259.99655818
 H     34  33  32     2.178762660390   106.73610476    53.04990883
 H     34  33  32     2.188038581569   105.78639949   296.99065629
 H     33  32  28     2.182110055981   103.43544837   136.71620891
 H     33  32  28     2.180497341071   102.40139750    23.09487707
 H     32  28  27     2.199634795699   103.89586805   162.59000123
 H     32  28  27     2.219403114513   104.34026144   275.84247708
 C     34  33  32     3.113365898470   118.28447322   176.08061392
 C     41  34  33     3.241789217821   125.73074228    73.91859231
 C     42  41  34     3.192827796321   123.03586491    89.84883564
 H     43  42  41     2.182413014130   109.77582319   352.18801133
 H     43  42  41     2.189518122571   108.94992293   232.06428473
 H     43  42  41     2.188628515606   109.59168097   112.75935746
 H     42  41  34     2.187785181789   104.95318958   209.96413836
 H     42  41  34     2.178681492057   106.65862765   325.40972566
 H     41  34  33     2.188323471116   107.13944389   310.10446471
 H     41  34  33     2.195128045055   106.17762102   194.73014157
 H      1   2   3     2.003107649107   127.26061455   180.00019352
 H     29  28  27     2.003119320729   127.20575347   180.00072186

----------------------------
SLATER BASIS SET DIM= 118
----------------------------
  0 C     2 shells
 l=0 nsto= 1
    2       1.625000000000        1.000000000000
 l=1 nsto= 1
    2       1.625000000000        1.000000000000
  1 C     2 shells
 l=0 nsto= 1
    2       1.625000000000        1.000000000000
 l=1 nsto= 1
    2       1.625000000000        1.000000000000
  2 C     2 shells
 l=0 nsto= 1
    2       1.625000000000        1.000000000000
 l=1 nsto= 1
    2       1.625000000000        1.000000000000
  3 C     2 shells
 l=0 nsto= 1
    2       1.625000000000        1.000000000000
 l=1 nsto= 1
    2       1.625000000000        1.000000000000
  4 S     2 shells
 l=0 nsto= 1
    3       1.925000000000        1.000000000000
 l=1 nsto= 1
    3       1.925000000000        1.000000000000
  5 H     1 shells
 l=0 nsto= 1
    1       1.200000000000        1.000000000000
  6 C     2 shells
 l=0 nsto= 1
    2       1.625000000000        1.000000000000
 l=1 nsto= 1
    2       1.625000000000        1.000000000000
  7 C     2 shells
 l=0 nsto= 1
    2       1.625000000000        1.000000000000
 l=1 nsto= 1
    2       1.625000000000        1.000000000000
  8 C     2 shells
 l=0 nsto= 1
    2       1.625000000000        1.000000000000
 l=1 nsto= 1
    2       1.625000000000        1.000000000000
  9 H     1 shells
 l=0 nsto= 1
    1       1.200000000000        1.000000000000
 10 H     1 shells
 l=0 nsto= 1
    1       1.200000000000        1.000000000000
 11 H     1 shells
 l=0 nsto= 1
    1       1.200000000000        1.000000000000
 12 H     1 shells
 l=0 nsto= 1
    1       1.200000000000        1.000000000000
 13 H     1 shells
 l=0 nsto= 1
    1       1.200000000000        1.000000000000
 14 H     1 shells
 l=0 nsto= 1
    1       1.200000000000        1.000000000000
 15 C     2 shells
 l=0 nsto= 1
    2       1.625000000000        1.000000000000
 l=1 nsto= 1
    2       1.625000000000        1.000000000000
 16 C     2 shells
 l=0 nsto= 1
    2       1.625000000000        1.000000000000
 l=1 nsto= 1
    2       1.625000000000        1.000000000000
 17 C     2 shells
 l=0 nsto= 1
    2       1.625000000000        1.000000000000
 l=1 nsto= 1
    2       1.625000000000        1.000000000000
 18 H     1 shells
 l=0 nsto= 1
    1       1.200000000000        1.000000000000
 19 H     1 shells
 l=0 nsto= 1
    1       1.200000000000        1.000000000000
 20 H     1 shells
 l=0 nsto= 1
    1       1.200000000000        1.000000000000
 21 H     1 shells
 l=0 nsto= 1
    1       1.200000000000        1.000000000000
 22 H     1 shells
 l=0 nsto= 1
    1       1.200000000000        1.000000000000
 23 H     1 shells
 l=0 nsto= 1
    1       1.200000000000        1.000000000000
 24 H     1 shells
 l=0 nsto= 1
    1       1.200000000000        1.000000000000
 25 C     2 shells
 l=0 nsto= 1
    2       1.625000000000        1.000000000000
 l=1 nsto= 1
    2       1.625000000000        1.000000000000
 26 C     2 shells
 l=0 nsto= 1
    2       1.625000000000        1.000000000000
 l=1 nsto= 1
    2       1.625000000000        1.000000000000
 27 C     2 shells
 l=0 nsto= 1
    2       1.625000000000        1.000000000000
 l=1 nsto= 1
    2       1.625000000000        1.000000000000
 28 C     2 shells
 l=0 nsto= 1
    2       1.625000000000        1.000000000000
 l=1 nsto= 1
    2       1.625000000000        1.000000000000
 29 S     2 shells
 l=0 nsto= 1
    3       1.925000000000        1.000000000000
 l=1 nsto= 1
    3       1.925000000000        1.000000000000
 30 H     1 shells
 l=0 nsto= 1
    1       1.200000000000        1.000000000000
 31 C     2 shells
 l=0 nsto= 1
    2       1.625000000000        1.000000000000
 l=1 nsto= 1
    2       1.625000000000        1.000000000000
 32 C     2 shells
 l=0 nsto= 1
    2       1.625000000000        1.000000000000
 l=1 nsto= 1
    2       1.625000000000        1.000000000000
 33 C     2 shells
 l=0 nsto= 1
    2       1.625000000000        1.000000000000
 l=1 nsto= 1
    2       1.625000000000        1.000000000000
 34 H     1 shells
 l=0 nsto= 1
    1       1.200000000000        1.000000000000
 35 H     1 shells
 l=0 nsto= 1
    1       1.200000000000        1.000000000000
 36 H     1 shells
 l=0 nsto= 1
    1       1.200000000000        1.000000000000
 37 H     1 shells
 l=0 nsto= 1
    1       1.200000000000        1.000000000000
 38 H     1 shells
 l=0 nsto= 1
    1       1.200000000000        1.000000000000
 39 H     1 shells
 l=0 nsto= 1
    1       1.200000000000        1.000000000000
 40 C     2 shells
 l=0 nsto= 1
    2       1.625000000000        1.000000000000
 l=1 nsto= 1
    2       1.625000000000        1.000000000000
 41 C     2 shells
 l=0 nsto= 1
    2       1.625000000000        1.000000000000
 l=1 nsto= 1
    2       1.625000000000        1.000000000000
 42 C     2 shells
 l=0 nsto= 1
    2       1.625000000000        1.000000000000
 l=1 nsto= 1
    2       1.625000000000        1.000000000000
 43 H     1 shells
 l=0 nsto= 1
    1       1.200000000000        1.000000000000
 44 H     1 shells
 l=0 nsto= 1
    1       1.200000000000        1.000000000000
 45 H     1 shells
 l=0 nsto= 1
    1       1.200000000000        1.000000000000
 46 H     1 shells
 l=0 nsto= 1
    1       1.200000000000        1.000000000000
 47 H     1 shells
 l=0 nsto= 1
    1       1.200000000000        1.000000000000
 48 H     1 shells
 l=0 nsto= 1
    1       1.200000000000        1.000000000000
 49 H     1 shells
 l=0 nsto= 1
    1       1.200000000000        1.000000000000
 50 H     1 shells
 l=0 nsto= 1
    1       1.200000000000        1.000000000000
 51 H     1 shells
 l=0 nsto= 1
    1       1.200000000000        1.000000000000
------------------------------------------------------------------------------
                           ORCA NDO INTEGRAL CALCULATION
------------------------------------------------------------------------------

--------------
NDO PARAMETERS
--------------

Gamma integral treatment              ... Mataga-Nishimoto
Nuclear repulsuion treatment          ... Direct (ZA*ZB/RAB)
Interaction factors:
s-s (sigma) =    1.0000
s-p (sigma) =    1.0000
s-d (sigma) =    1.0000
p-p (sigma) =    1.2670  p-p(pi) =    0.5850
p-d (sigma) =    1.0000  p-d(pi) =    1.0000
d-d (sigma) =    1.0000  d-d(pi) =    1.0000 d-d (delta) =    1.0000

fGamma parameter for Mataga-Nishimoto gamma integrals:    1.2000

--------------------------
Parameters for Element H :
--------------------------
 One-electron parameters (in eV)
  U(s)  =   -13.060000 Beta(s) =    12.000000 Neff(s) =     1.000000
 One-center electron repulsion parameters (in eV)
  G(s,s)=    12.850000
--------------------------
Parameters for Element C :
--------------------------
 One-electron parameters (in eV)
  U(s)  =   -50.870766 Beta(s) =    17.000000 Neff(s) =     2.000000
  U(p)  =   -41.599980 Beta(p) =    17.000000 Neff(p) =     2.000000 
 One-center electron repulsion parameters (in eV)
  G(s,s)=    11.110000
  G(s,p)=    11.110000 G(p,p)  =    11.110000
 Slater-Condon parameters (in eV)
 F2(p,p)=     4.5098 G1(s,p)=    6.8977
--------------------------
Parameters for Element S :
--------------------------
 One-electron parameters (in eV)
  U(s)  =   -69.509597 Beta(s) =    15.000000 Neff(s) =     2.000000
  U(p)  =   -60.725746 Beta(p) =    15.000000 Neff(p) =     4.000000 
 One-center electron repulsion parameters (in eV)
  G(s,s)=    10.090000
  G(s,p)=    10.090000 G(p,p)  =    10.090000
 Slater-Condon parameters (in eV)
 F2(p,p)=     4.5377 G1(s,p)=    3.0756

 Number of atoms                    ....   52
 Number of basis functions          ....  118

 Overlap integrals                  .... done
 One electron matrix                .... done
 Nuclear repulsion                  .... done
 Integral list                      .... done
 Electron-electron repulsion        .... done
-------------------------------------------------------------------------------
                                 ORCA SCF
-------------------------------------------------------------------------------

------------
SCF SETTINGS
------------
Hamiltonian:
 ZDO-Hamiltonian        Method          .... INDO


General Settings:
 Integral files         IntName         .... /home/mattyjones/Software/morphct/tests/output_EZ/donor_polymer/chromophores/input_orca/pair/00000-00001
 Hartree-Fock type      HFTyp           .... RHF
 Total Charge           Charge          ....    0
 Multiplicity           Mult            ....    1
 Number of Electrons    NEL             ....  122
 Basis Dimension        Dim             ....  118
 Nuclear Repulsion      ENuc            ....    799.6455168695 Eh

Convergence Acceleration:
 DIIS                   CNVDIIS         .... on
   Start iteration      DIISMaxIt       ....    12
   Startup error        DIISStart       ....  0.200000
   # of expansion vecs  DIISMaxEq       ....     5
   Bias factor          DIISBfac        ....   1.050
   Max. coefficient     DIISMaxC        ....  10.000
 Newton-Raphson         CNVNR           .... off
 SOSCF                  CNVSOSCF        .... on
   Start iteration      SOSCFMaxIt      ....   150
   Startup grad/error   SOSCFStart      ....  0.003300
 Level Shifting         CNVShift        .... on
   Level shift para.    LevelShift      ....    0.2500
   Turn off err/grad.   ShiftErr        ....    0.0010
 Zerner damping         CNVZerner       .... off
 Static damping         CNVDamp         .... on
   Fraction old density DampFac         ....    0.7000
   Max. Damping (<1)    DampMax         ....    0.9800
   Min. Damping (>=0)   DampMin         ....    0.0000
   Turn off err/grad.   DampErr         ....    0.1000
 Fernandez-Rico         CNVRico         .... off

SCF Procedure:
 Maximum # iterations   MaxIter         ....   125
 SCF integral mode      SCFMode         .... Conventional
 Integral Buffer length BufferLength    .... 1048576
 Integral index format  IndFormat       ....     0
 Integral value format  ValFormat       ....     0
 Integral Storage       Thresh          ....  1.000e-08 Eh

Convergence Tolerance:
 Convergence Check Mode ConvCheckMode   .... Total+1el-Energy
 Convergence forced     ConvForced      .... 0
 Energy Change          TolE            ....  1.000e-06 Eh
 1-El. energy change                    ....  1.000e-03 Eh
 Orbital Gradient       TolG            ....  5.000e-05
 Orbital Rotation angle TolX            ....  5.000e-05
 DIIS Error             TolErr          ....  1.000e-06


Diagonalization of the overlap matrix:
Smallest eigenvalue                        ... 1.691e-01
Time for diagonalization                   ...    0.002 sec
Threshold for overlap eigenvalues          ... 1.000e-08
Number of eigenvalues below threshold      ... 0
Time for construction of square roots      ...    0.000 sec
Total time needed                          ...    0.003 sec

-------------------------------
INITIAL GUESS: EXTENDED HUECKEL
-------------------------------
EHT matrix was read from disk
EHT matrix was diagonalized
Initial density was built
                      ------------------
                      INITIAL GUESS DONE
                      ------------------

 InCore treatment chosen:
   Memory dedicated               ...    1024 MB
   Memory needed                  ...      0 MB
   Number of tiny    integrals    ...       0
   Number of small   integrals    ...       0
   Number of regular integrals    ...    7153

--------------
SCF ITERATIONS
--------------
ITER       Energy         Delta-E        Max-DP      RMS-DP      [F,P]     Damp
  0    -12.2802742472   0.000000000000 0.03932492  0.00144698  0.0875906 0.7000
  1    -12.3209615028  -0.040687255598 0.03667977  0.00136441  0.0628464 0.7000
                               ***Turning on DIIS***
  2    -12.3511886428  -0.030227140014 0.09219761  0.00350752  0.0414478 0.0000
  3    -12.4331042932  -0.081915650399 0.01568005  0.00072879  0.0190283 0.0000
  4    -12.4111266770   0.021977616226 0.00968035  0.00049815  0.0060171 0.0000
  5    -12.4297777873  -0.018651110317 0.00655802  0.00033147  0.0035414 0.0000
  6    -12.4329598230  -0.003182035731 0.00494049  0.00023857  0.0019461 0.0000
                      *** Initiating the SOSCF procedure ***
                           *** Shutting down DIIS ***
                      *** Re-Reading the Fockian *** 
                      *** Removing any level shift *** 
ITER      Energy       Delta-E        Grad      Rot      Max-DP    RMS-DP
  7    -12.42979761   0.0031622129  0.002565  0.002565  0.002982  0.000137
  8    -12.42922592   0.0005716925  0.000693  0.001915  0.001501  0.000065
  9    -12.42924141  -0.0000154961  0.000318  0.001944  0.001697  0.000070
 10    -12.42924721  -0.0000057991  0.000030  0.000071  0.000203  0.000005
                 **** Energy Check signals convergence ****
              ***Rediagonalizing the Fockian in SOSCF/NRSCF***

               *****************************************************
               *                     SUCCESS                       *
               *           SCF CONVERGED AFTER  11 CYCLES          *
               *****************************************************


----------------
TOTAL SCF ENERGY
----------------

Total Energy       :          -12.42924728 Eh            -338.21701 eV

Components:
Nuclear Repulsion  :          799.64551687 Eh           21759.46074 eV
Electronic Energy  :         -812.07476415 Eh          -22097.67776 eV
One Electron Energy:        -1535.44302665 Eh          -41781.52889 eV
Two Electron Energy:          723.36826250 Eh           19683.85113 eV


---------------
SCF CONVERGENCE
---------------

  Last Energy change         ...   -6.4368e-08  Tolerance :   1.0000e-06
  Last MAX-Density change    ...    4.2814e-05  Tolerance :   1.0000e-05
  Last RMS-Density change    ...    1.5778e-06  Tolerance :   1.0000e-06
  Last Orbital Gradient      ...    1.2128e-05  Tolerance :   5.0000e-05
  Last Orbital Rotation      ...    2.1118e-05  Tolerance :   5.0000e-05

             **** THE GBW FILE WAS UPDATED (/home/mattyjones/Software/morphct/tests/output_EZ/donor_polymer/chromophores/input_orca/pair/00000-00001.gbw) ****
             **** DENSITY FILE WAS UPDATED (/home/mattyjones/Software/morphct/tests/output_EZ/donor_polymer/chromophores/input_orca/pair/00000-00001.scfp.tmp) ****
             **** ENERGY FILE WAS UPDATED (/home/mattyjones/Software/morphct/tests/output_EZ/donor_polymer/chromophores/input_orca/pair/00000-00001.en.tmp) ****
----------------
ORBITAL ENERGIES
----------------

  NO   OCC          E(Eh)            E(eV) 
   0   2.0000      -1.564881       -42.5826 
   1   2.0000      -1.544228       -42.0206 
   2   2.0000      -1.381824       -37.6013 
   3   2.0000      -1.371208       -37.3125 
   4   2.0000      -1.286972       -35.0203 
   5   2.0000      -1.273010       -34.6404 
   6   2.0000      -1.199460       -32.6390 
   7   2.0000      -1.184655       -32.2361 
   8   2.0000      -1.132603       -30.8197 
   9   2.0000      -1.081004       -29.4156 
  10   2.0000      -1.039639       -28.2900 
  11   2.0000      -1.024915       -27.8894 
  12   2.0000      -0.975694       -26.5500 
  13   2.0000      -0.957284       -26.0490 
  14   2.0000      -0.935151       -25.4467 
  15   2.0000      -0.910830       -24.7849 
  16   2.0000      -0.843485       -22.9524 
  17   2.0000      -0.836616       -22.7655 
  18   2.0000      -0.826313       -22.4851 
  19   2.0000      -0.784611       -21.3504 
  20   2.0000      -0.767289       -20.8790 
  21   2.0000      -0.743678       -20.2365 
  22   2.0000      -0.732860       -19.9421 
  23   2.0000      -0.705248       -19.1908 
  24   2.0000      -0.696278       -18.9467 
  25   2.0000      -0.687202       -18.6997 
  26   2.0000      -0.666681       -18.1413 
  27   2.0000      -0.655946       -17.8492 
  28   2.0000      -0.644124       -17.5275 
  29   2.0000      -0.634186       -17.2571 
  30   2.0000      -0.623448       -16.9649 
  31   2.0000      -0.616305       -16.7705 
  32   2.0000      -0.606473       -16.5030 
  33   2.0000      -0.577313       -15.7095 
  34   2.0000      -0.575601       -15.6629 
  35   2.0000      -0.571028       -15.5385 
  36   2.0000      -0.556031       -15.1304 
  37   2.0000      -0.553590       -15.0639 
  38   2.0000      -0.546048       -14.8587 
  39   2.0000      -0.541207       -14.7270 
  40   2.0000      -0.535346       -14.5675 
  41   2.0000      -0.522267       -14.2116 
  42   2.0000      -0.513816       -13.9817 
  43   2.0000      -0.505895       -13.7661 
  44   2.0000      -0.501251       -13.6397 
  45   2.0000      -0.499389       -13.5891 
  46   2.0000      -0.496288       -13.5047 
  47   2.0000      -0.488775       -13.3002 
  48   2.0000      -0.485901       -13.2220 
  49   2.0000      -0.477307       -12.9882 
  50   2.0000      -0.471905       -12.8412 
  51   2.0000      -0.469149       -12.7662 
  52   2.0000      -0.453146       -12.3307 
  53   2.0000      -0.449458       -12.2304 
  54   2.0000      -0.445231       -12.1154 
  55   2.0000      -0.433962       -11.8087 
  56   2.0000      -0.425331       -11.5738 
  57   2.0000      -0.360469        -9.8089 
  58   2.0000      -0.356313        -9.6958 
  59   2.0000      -0.307702        -8.3730 
  60   2.0000      -0.299396        -8.1470 
  61   0.0000       0.001280         0.0348 
  62   0.0000       0.006859         0.1866 
  63   0.0000       0.024641         0.6705 
  64   0.0000       0.042531         1.1573 
  65   0.0000       0.059817         1.6277 
  66   0.0000       0.069657         1.8955 
  67   0.0000       0.070199         1.9102 
  68   0.0000       0.076749         2.0884 
  69   0.0000       0.083112         2.2616 
  70   0.0000       0.099897         2.7183 
  71   0.0000       0.102715         2.7950 
  72   0.0000       0.118719         3.2305 
  73   0.0000       0.122035         3.3207 
  74   0.0000       0.129626         3.5273 
  75   0.0000       0.137981         3.7547 
  76   0.0000       0.144545         3.9333 
  77   0.0000       0.155003         4.2178 
  78   0.0000       0.162641         4.4257 
  79   0.0000       0.164406         4.4737 
  80   0.0000       0.171871         4.6769 
  81   0.0000       0.173254         4.7145 
  82   0.0000       0.185020         5.0346 
  83   0.0000       0.201418         5.4809 
  84   0.0000       0.209308         5.6956 
  85   0.0000       0.225392         6.1332 
  86   0.0000       0.226366         6.1597 
  87   0.0000       0.231771         6.3068 
  88   0.0000       0.233045         6.3415 
  89   0.0000       0.236096         6.4245 
  90   0.0000       0.236462         6.4344 
  91   0.0000       0.236660         6.4399 
  92   0.0000       0.236856         6.4452 
  93   0.0000       0.237704         6.4683 
  94   0.0000       0.238945         6.5020 
  95   0.0000       0.239711         6.5229 
  96   0.0000       0.240271         6.5381 
  97   0.0000       0.242368         6.5952 
  98   0.0000       0.243496         6.6259 
  99   0.0000       0.243566         6.6278 
 100   0.0000       0.245637         6.6841 
 101   0.0000       0.247258         6.7282 
 102   0.0000       0.251696         6.8490 
 103   0.0000       0.258298         7.0286 
 104   0.0000       0.271441         7.3863 
 105   0.0000       0.274316         7.4645 
 106   0.0000       0.290149         7.8954 
 107   0.0000       0.297483         8.0949 
 108   0.0000       0.299800         8.1580 
 109   0.0000       0.311518         8.4768 
 110   0.0000       0.333529         9.0758 
 111   0.0000       0.345459         9.4004 
 112   0.0000       0.355324         9.6689 
 113   0.0000       0.361453         9.8356 
 114   0.0000       0.400396        10.8953 
 115   0.0000       0.411301        11.1921 
 116   0.0000       0.419465        11.4142 
 117   0.0000       0.463227        12.6050 
-------
TIMINGS
-------

Total SCF time: 0 days 0 hours 0 min 0 sec 

Total time                  ....       0.147 sec
Sum of individual times     ....       0.129 sec  ( 87.6%)

Fock matrix formation       ....       0.044 sec  ( 29.6%)
Diagonalization             ....       0.021 sec  ( 14.3%)
Density matrix formation    ....       0.003 sec  (  2.0%)
Population analysis         ....       0.000 sec  (  0.0%)
Initial guess               ....       0.014 sec  (  9.7%)
Orbital Transformation      ....       0.000 sec  (  0.0%)
Orbital Orthonormalization  ....       0.000 sec  (  0.0%)
DIIS solution               ....       0.005 sec  (  3.2%)
SOSCF solution              ....       0.042 sec  ( 28.7%)

-------------------------   --------------------
FINAL SINGLE POINT ENERGY       -12.429247277211
-------------------------   --------------------


                            ***************************************
                            *     ORCA property calculations      *
                            ***************************************

                                    ---------------------
                                    Active property flags
                                    ---------------------
   (+) Dipole Moment


------------------------------------------------------------------------------
                       ORCA ELECTRIC PROPERTIES CALCULATION
------------------------------------------------------------------------------

Dipole Moment Calculation                       ... on
Quadrupole Moment Calculation                   ... off
Polarizability Calculation                      ... off
GBWName                                         ... /home/mattyjones/Software/morphct/tests/output_EZ/donor_polymer/chromophores/input_orca/pair/00000-00001.gbw
Electron density file                           ... /home/mattyjones/Software/morphct/tests/output_EZ/donor_polymer/chromophores/input_orca/pair/00000-00001.scfp.tmp
The origin for moment calculation is the CENTER OF MASS  = (-0.864395, -0.301708  0.512002)

-------------
DIPOLE MOMENT
-------------
                                X             Y             Z
Electronic contribution:    -92.07426     -30.72755      59.54744
Nuclear contribution   :     49.99771      16.54231     -31.19928
                        -----------------------------------------
Total Dipole Moment    :    -42.07655     -14.18523      28.34816
                        -----------------------------------------
Magnitude (a.u.)       :     52.68088
Magnitude (Debye)      :    133.90415


Timings for individual modules:

Sum of individual times         ...        0.175 sec (=   0.003 min)
STO integral calculation        ...        0.017 sec (=   0.000 min)   9.5 %
SCF iterations                  ...        0.158 sec (=   0.003 min)  90.5 %
                             ****ORCA TERMINATED NORMALLY****
TOTAL RUN TIME: 0 days 0 hours 0 minutes 0 seconds 443 msec

