
                                 *****************
                                 * O   R   C   A *
                                 *****************

           --- An Ab Initio, DFT and Semiempirical electronic structure package ---

                  #######################################################
                  #                        -***-                        #
                  #  Department of molecular theory and spectroscopy    #
                  #              Directorship: Frank Neese              #
                  # Max Planck Institute for Chemical Energy Conversion #
                  #                  D-45470 Muelheim/Ruhr              #
                  #                       Germany                       #
                  #                                                     #
                  #                  All rights reserved                #
                  #                        -***-                        #
                  #######################################################


                         Program Version 4.0.1.2 - RELEASE -


 With contributions from (in alphabetic order):
   Daniel Aravena         : Magnetic Properties
   Michael Atanasov       : Ab Initio Ligand Field Theory
   Ute Becker             : Parallelization
   Martin Brehm           : Molecular dynamics
   Dmytro Bykov           : SCF Hessian
   Vijay G. Chilkuri      : MRCI spin determinant printing
   Dipayan Datta          : RHF DLPNO-CCSD density
   Achintya Kumar Dutta   : EOM-CC, STEOM-CC
   Dmitry Ganyushin       : Spin-Orbit,Spin-Spin,Magnetic field MRCI
   Yang Guo               : DLPNO-NEVPT2, CIM, IAO-localization
   Andreas Hansen         : Spin unrestricted coupled pair/coupled cluster methods
   Lee Huntington         : MR-EOM, pCC
   Robert Izsak           : Overlap fitted RIJCOSX, COSX-SCS-MP3, EOM
   Christian Kollmar      : KDIIS, OOCD, Brueckner-CCSD(T), CCSD density
   Simone Kossmann        : Meta GGA functionals, TD-DFT gradient, OOMP2, MP2 Hessian
   Martin Krupicka        : AUTO-CI
   Dagmar Lenk            : GEPOL surface
   Dimitrios Liakos       : Extrapolation schemes; parallel MDCI
   Dimitrios Manganas     : ROCIS; embedding schemes
   Dimitrios Pantazis     : SARC Basis sets
   Taras Petrenko         : DFT Hessian,TD-DFT gradient, ASA, ECA, R-Raman, ABS, FL, XAS/XES, NRVS
   Peter Pinski           : DLPNO-MP2
   Christoph Reimann      : Effective Core Potentials
   Marius Retegan         : Local ZFS, SOC
   Christoph Riplinger    : Optimizer, TS searches, QM/MM, DLPNO-CCSD(T), (RO)-DLPNO pert. Triples
   Tobias Risthaus        : Range-separated hybrids, TD-DFT gradient, RPA, STAB
   Michael Roemelt        : Restricted open shell CIS
   Masaaki Saitow         : Open-shell DLPNO
   Barbara Sandhoefer     : DKH picture change effects
   Kantharuban Sivalingam : CASSCF convergence, NEVPT2, FIC-MRCI
   Georgi Stoychev        : AutoAux
   Boris Wezisla          : Elementary symmetry handling
   Frank Wennmohs         : Technical directorship


 We gratefully acknowledge several colleagues who have allowed us to
 interface, adapt or use parts of their codes:
   Stefan Grimme, W. Hujo, H. Kruse,             : VdW corrections, initial TS optimization,
                  C. Bannwarth                     DFT functionals, gCP, sTDA/sTD-DF
   Ed Valeev                                     : LibInt (2-el integral package), F12 methods
   Garnet Chan, S. Sharma, J. Yang, R. Olivares  : DMRG
   Ulf Ekstrom                                   : XCFun DFT Library
   Mihaly Kallay                                 : mrcc  (arbitrary order and MRCC methods)
   Andreas Klamt, Michael Diedenhofen            : otool_cosmo (COSMO solvation model)
   Jiri Pittner, Ondrej Demel                    : Mk-CCSD
   Frank Weinhold                                : gennbo (NPA and NBO analysis)
   Christopher J. Cramer and Donald G. Truhlar   : smd solvation model


 Your calculation uses the libint2 library for the computation of 2-el integrals
 For citations please refer to: http://libint.valeyev.net

 This ORCA versions uses:
   CBLAS   interface :  Fast vector & matrix operations
   LAPACKE interface :  Fast linear algebra routines
   SCALAPACK package :  Parallel linear algebra routines


leaving
Your calculation utilizes the basis: def2-SVP
   F. Weigend and R. Ahlrichs, Phys. Chem. Chem. Phys. 7, 3297 (2005).

================================================================================
                                        WARNINGS
                       Please study these warnings very carefully!
================================================================================

Warning: TCutStore was < 0. Adjusted to Thresh (uncritical)

WARNING: Direct SCF is incompatible with Method<>HF and Method<>DFT
  ===> : conventional SCF is chosen

WARNING: The NDO methods need Guess=HUECKEL or Guess=HCORE or Guess=MOREAD
  ===> : Guess is set to Hueckel

WARNING: The NDO methods need %rel::SOCType==1
  ===> : %rel::SOCType is set to 1

WARNING: The NDO methods cannot have frozencore=1
  ===> : %method FrozenCore=0 end

INFO   : the flag for use of LIBINT has been found!

================================================================================
                                       INPUT FILE
================================================================================
NAME = /home/mattyjones/Software/morphct/tests/output_EZ/donor_polymer/chromophores/input_orca/pair/00007-00022.inp
|  1> # ================================================================
|  2> # Orca input file made by Matty Jones
|  3> # ================================================================
|  4> ! ZINDO/S 
|  5> ! NOPOP
|  6> ! NOMOPRINT
|  7> * xyz 0   1
|  8>  C  18.44398  -3.29698  -0.05608
|  9>  C  19.63691  -3.05792  -0.73993
| 10>  C  20.80305  -3.53494  -0.06403
| 11>  C  20.52954  -4.15380  1.15970
| 12>  S  18.88246  -4.07925  1.33851
| 13>  H  19.84768  -1.94427  -1.09258
| 14>  C  22.21869  -3.27118  -0.82813
| 15>  C  22.18233  -1.69688  -1.59079
| 16>  C  23.14662  -0.63534  -2.55293
| 17>  H  23.59102  0.17049  -1.86167
| 18>  H  23.98523  -1.24110  -3.04960
| 19>  H  21.35046  -1.91074  -2.37538
| 20>  H  21.81382  -1.00830  -0.74383
| 21>  H  23.10047  -3.26442  -0.07843
| 22>  H  22.40598  -4.05994  -1.64731
| 23>  C  22.17097  0.06440  -3.67550
| 24>  C  22.61651  1.44139  -4.56491
| 25>  C  23.32206  1.32027  -6.08834
| 26>  H  23.49739  2.38950  -6.50206
| 27>  H  22.61220  0.74639  -6.79915
| 28>  H  24.33306  0.76695  -6.00456
| 29>  H  21.63842  2.02489  -4.71987
| 30>  H  23.33975  2.04377  -3.90124
| 31>  H  21.94429  -0.74680  -4.47513
| 32>  H  21.17099  0.34125  -3.15629
| 33>  C  -24.29125  -2.02507  0.61328
| 34>  C  -23.41267  -1.08763  1.15842
| 35>  C  -24.04169  -0.11894  2.00115
| 36>  C  -25.42394  -0.29234  2.12207
| 37>  S  -25.78993  -1.61644  1.19300
| 38>  H  -22.28991  -1.08561  0.96480
| 39>  C  -23.25163  1.08191  2.72661
| 40>  C  -22.23690  2.01099  1.75569
| 41>  C  -21.57992  3.30995  2.61374
| 42>  H  -22.44742  3.79882  3.20822
| 43>  H  -21.21270  4.07763  1.82660
| 44>  H  -21.39138  1.34803  1.35422
| 45>  H  -22.85686  2.42913  0.87933
| 46>  H  -23.90872  1.82809  3.31315
| 47>  H  -22.54519  0.59194  3.53536
| 48>  C  -20.36375  2.97628  3.63650
| 49>  C  -18.83555  2.87169  2.93657
| 50>  C  -18.44208  1.28893  2.52384
| 51>  H  -17.42046  1.28051  1.98096
| 52>  H  -19.25388  0.85020  1.82815
| 53>  H  -18.37434  0.65349  3.48940
| 54>  H  -18.81350  3.51752  1.98351
| 55>  H  -18.05640  3.26286  3.68903
| 56>  H  -20.57721  1.97363  4.17410
| 57>  H  -20.31140  3.81204  4.43893
| 58>  H  17.46423  -3.03390  -0.36346
| 59>  H  21.22860  -4.58111  1.83225
| 60>  H  -24.05106  -2.82882  -0.03472
| 61>  H  -26.09693  0.29878  2.68888
| 62> *
| 63> 
| 64>                          ****END OF INPUT****
================================================================================

                       ****************************
                       * Single Point Calculation *
                       ****************************

---------------------------------
CARTESIAN COORDINATES (ANGSTROEM)
---------------------------------
  C     18.443980   -3.296980   -0.056080
  C     19.636910   -3.057920   -0.739930
  C     20.803050   -3.534940   -0.064030
  C     20.529540   -4.153800    1.159700
  S     18.882460   -4.079250    1.338510
  H     19.847680   -1.944270   -1.092580
  C     22.218690   -3.271180   -0.828130
  C     22.182330   -1.696880   -1.590790
  C     23.146620   -0.635340   -2.552930
  H     23.591020    0.170490   -1.861670
  H     23.985230   -1.241100   -3.049600
  H     21.350460   -1.910740   -2.375380
  H     21.813820   -1.008300   -0.743830
  H     23.100470   -3.264420   -0.078430
  H     22.405980   -4.059940   -1.647310
  C     22.170970    0.064400   -3.675500
  C     22.616510    1.441390   -4.564910
  C     23.322060    1.320270   -6.088340
  H     23.497390    2.389500   -6.502060
  H     22.612200    0.746390   -6.799150
  H     24.333060    0.766950   -6.004560
  H     21.638420    2.024890   -4.719870
  H     23.339750    2.043770   -3.901240
  H     21.944290   -0.746800   -4.475130
  H     21.170990    0.341250   -3.156290
  C    -24.291250   -2.025070    0.613280
  C    -23.412670   -1.087630    1.158420
  C    -24.041690   -0.118940    2.001150
  C    -25.423940   -0.292340    2.122070
  S    -25.789930   -1.616440    1.193000
  H    -22.289910   -1.085610    0.964800
  C    -23.251630    1.081910    2.726610
  C    -22.236900    2.010990    1.755690
  C    -21.579920    3.309950    2.613740
  H    -22.447420    3.798820    3.208220
  H    -21.212700    4.077630    1.826600
  H    -21.391380    1.348030    1.354220
  H    -22.856860    2.429130    0.879330
  H    -23.908720    1.828090    3.313150
  H    -22.545190    0.591940    3.535360
  C    -20.363750    2.976280    3.636500
  C    -18.835550    2.871690    2.936570
  C    -18.442080    1.288930    2.523840
  H    -17.420460    1.280510    1.980960
  H    -19.253880    0.850200    1.828150
  H    -18.374340    0.653490    3.489400
  H    -18.813500    3.517520    1.983510
  H    -18.056400    3.262860    3.689030
  H    -20.577210    1.973630    4.174100
  H    -20.311400    3.812040    4.438930
  H     17.464230   -3.033900   -0.363460
  H     21.228600   -4.581110    1.832250
  H    -24.051060   -2.828820   -0.034720
  H    -26.096930    0.298780    2.688880

----------------------------
CARTESIAN COORDINATES (A.U.)
----------------------------
  NO LB      ZA    FRAG     MASS         X           Y           Z
   0 C     4.0000    0    12.011   34.854071   -6.230389   -0.105976
   1 C     4.0000    0    12.011   37.108382   -5.778631   -1.398265
   2 C     4.0000    0    12.011   39.312067   -6.680068   -0.120999
   3 C     4.0000    0    12.011   38.795208   -7.849544    2.191515
   4 S     6.0000    0    32.060   35.682678   -7.708665    2.529417
   5 H     1.0000    0     1.008   37.506680   -3.674138   -2.064677
   6 C     4.0000    0    12.011   41.987239   -6.181634   -1.564939
   7 C     4.0000    0    12.011   41.918529   -3.206638   -3.006157
   8 C     4.0000    0    12.011   43.740773   -1.200619   -4.824339
   9 H     1.0000    0     1.008   44.580567    0.322179   -3.518046
  10 H     1.0000    0     1.008   45.325516   -2.345339   -5.762909
  11 H     1.0000    0     1.008   40.346522   -3.610775   -4.488818
  12 H     1.0000    0     1.008   41.222146   -1.905411   -1.405635
  13 H     1.0000    0     1.008   43.653562   -6.168860   -0.148211
  14 H     1.0000    0     1.008   42.341166   -7.672175   -3.112965
  15 C     4.0000    0    12.011   41.897061    0.121698   -6.945688
  16 C     4.0000    0    12.011   42.739010    2.723832   -8.626430
  17 C     4.0000    0    12.011   44.072306    2.494949  -11.505295
  18 H     1.0000    0     1.008   44.403632    4.515501  -12.287113
  19 H     1.0000    0     1.008   42.730865    1.410473  -12.848531
  20 H     1.0000    0     1.008   45.982819    1.449325  -11.346974
  21 H     1.0000    0     1.008   40.890688    3.826488   -8.919262
  22 H     1.0000    0     1.008   44.105736    3.862166   -7.372275
  23 H     1.0000    0     1.008   41.468698   -1.411247   -8.456770
  24 H     1.0000    0     1.008   40.007373    0.644869   -5.964524
  25 C     4.0000    0    12.011  -45.903810   -3.826828    1.158931
  26 C     4.0000    0    12.011  -44.243534   -2.055323    2.189097
  27 C     4.0000    0    12.011  -45.432210   -0.224764    3.781625
  28 C     4.0000    0    12.011  -48.044284   -0.552443    4.010131
  29 S     6.0000    0    32.060  -48.735905   -3.054629    2.254443
  30 H     1.0000    0     1.008  -42.121825   -2.051506    1.823208
  31 C     4.0000    0    12.011  -43.939213    2.044514    5.152546
  32 C     4.0000    0    12.011  -42.021651    3.800220    3.317773
  33 C     4.0000    0    12.011  -40.780139    6.254899    4.939253
  34 H     1.0000    0     1.008  -42.419476    7.178729    6.062657
  35 H     1.0000    0     1.008  -40.086194    7.705604    3.451774
  36 H     1.0000    0     1.008  -40.423850    2.547408    2.559105
  37 H     1.0000    0     1.008  -43.193206    4.590390    1.661693
  38 H     1.0000    0     1.008  -45.180933    3.454589    6.260946
  39 H     1.0000    0     1.008  -42.604235    1.118604    6.680862
  40 C     4.0000    0    12.011  -38.481911    5.624354    6.871989
  41 C     4.0000    0    12.011  -35.594031    5.426708    5.549313
  42 C     4.0000    0    12.011  -34.850481    2.435725    4.769366
  43 H     1.0000    0     1.008  -32.919899    2.419813    3.743472
  44 H     1.0000    0     1.008  -36.384560    1.606645    3.454703
  45 H     1.0000    0     1.008  -34.722470    1.234917    6.594010
  46 H     1.0000    0     1.008  -35.552363    6.647149    3.748291
  47 H     1.0000    0     1.008  -34.121651    6.165912    6.971256
  48 H     1.0000    0     1.008  -38.885292    3.729620    7.887906
  49 H     1.0000    0     1.008  -38.382983    7.203712    8.388362
  50 H     1.0000    0     1.008   33.002612   -5.733240   -0.686840
  51 H     1.0000    0     1.008   40.116240   -8.657043    3.462451
  52 H     1.0000    0     1.008  -45.449917   -5.345695   -0.065611
  53 H     1.0000    0     1.008  -49.316051    0.564612    5.081247

--------------------------------
INTERNAL COORDINATES (ANGSTROEM)
--------------------------------
 C      0   0   0     0.000000000000     0.00000000     0.00000000
 C      1   0   0     1.395665608590     0.00000000     0.00000000
 C      2   1   0     1.429780189400   114.10161570     0.00000000
 C      3   2   1     1.398324187233   113.69261655     0.00000000
 S      1   2   3     1.658038700212   105.47986249     0.00000000
 H      2   1   3     1.187014042840   117.26068337   232.34813212
 C      3   2   1     1.630170162038   115.63984320   180.17634662
 C      7   3   2     1.749683632889   109.38074810    38.36761340
 C      8   7   3     1.726973003640   141.65663768   180.23684606
 H      9   8   7     1.150953403271   108.14068905   258.65704991
 H      9   8   7     1.147559583900   108.94736832    18.58740101
 H      8   7   3     1.163325089818    98.24630872   294.16597621
 H      8   7   3     1.152077809048   102.94277339    49.26216183
 H      7   3   2     1.157424622168   111.03422138   156.26900959
 H      7   3   2     1.152508461618   111.31821284   279.07348201
 C      9   8   7     1.643682571241   108.10376440   139.64569993
 C     16   9   8     1.698722313917   123.16039381   164.41390748
 C     17  16   9     1.683243839080   121.70021058    94.12663038
 H     18  17  16     1.159809311999   108.65533562   178.02018244
 H     18  17  16     1.156931428435   109.54623754    58.64961821
 H     18  17  16     1.155553162256   109.60677984   297.73277202
 H     17  16   9     1.149410674955   105.00506079   213.83278501
 H     17  16   9     1.151692507096   106.67661318   330.88683516
 H     16   9   8     1.161394592419   106.78183520   285.58251944
 H     16   9   8     1.160252104932   107.91099946    41.30196903
 C      1   2   3    42.759392898059   148.96263773   186.33064612
 C     26   1   2     1.395662634593    52.91080079   262.31674465
 C     27  26   1     1.429762333187   114.10128018   190.76754935
 C     28  27  26     1.398321947514   113.69354066     0.00000000
 S     26   1   2     1.658039655044   156.37389180   235.62096384
 H     27  26   1     1.139334368129   123.72188870    10.33775298
 C     28  27  26     1.610132832315   123.71027238   181.14487625
 C     32  28  27     1.683909815192   116.57642058    49.87494621
 C     33  32  28     1.689724712638   111.44752802   175.06447438
 H     34  33  32     1.159722638091   107.06883193   314.26841533
 H     34  33  32     1.159212012705   106.70516571   199.04083178
 H     33  32  28     1.146995288962   109.09454557   296.22209659
 H     33  32  28     1.152040932780   108.33561055    55.82684401
 H     32  28  27     1.154374736427   115.57623599   175.72686612
 H     32  28  27     1.180340898639   107.02557541   292.40721939
 C     34  33  32     1.623712768749   116.94314820    76.69902441
 C     41  34  33     1.684112915751   115.50812067    82.78114513
 C     42  41  34     1.682347737954   111.87714155   266.33632859
 H     43  42  41     1.156934317582   109.17730018   176.00627370
 H     43  42  41     1.155633085802   109.91126749    55.78874656
 H     43  42  41     1.157876856492   108.99054697   295.70985542
 H     42  41  34     1.151479897784   109.05862426    26.58167786
 H     42  41  34     1.151644364811   108.74013145   146.19058906
 H     41  34  33     1.157534428905   109.41578453   320.88803908
 H     41  34  33     1.159797053368   108.75527804   202.97507326
 H      1   2   3     1.060001704385   127.25986420   179.99934954
 H      4   3   2     1.060001048207   127.20547392   179.99969837
 H     26   1   2     1.060004386123    75.01360043    73.46289129
 H     29  28  27     1.060005646494   127.20603956   180.00077115

---------------------------
INTERNAL COORDINATES (A.U.)
---------------------------
 C      0   0   0     0.000000000000     0.00000000     0.00000000
 C      1   0   0     2.637425774767     0.00000000     0.00000000
 C      2   1   0     2.701892989672   114.10161570     0.00000000
 C      3   2   1     2.642449760308   113.69261655     0.00000000
 S      1   2   3     3.133239062843   105.47986249     0.00000000
 H      2   1   3     2.243131458087   117.26068337   232.34813212
 C      3   2   1     3.080575157942   115.63984320   180.17634662
 C      7   3   2     3.306422887165   109.38074810    38.36761340
 C      8   7   3     3.263506017554   141.65663768   180.23684606
 H      9   8   7     2.174986725086   108.14068905   258.65704991
 H      9   8   7     2.168573335927   108.94736832    18.58740101
 H      8   7   3     2.198365824475    98.24630872   294.16597621
 H      8   7   3     2.177111544068   102.94277339    49.26216183
 H      7   3   2     2.187215556554   111.03422138   156.26900959
 H      7   3   2     2.177925359484   111.31821284   279.07348201
 C      9   8   7     3.106109910744   108.10376440   139.64569993
 C     16   9   8     3.210119950884   123.16039381   164.41390748
 C     17  16   9     3.180869872471   121.70021058    94.12663038
 H     18  17  16     2.191721967250   108.65533562   178.02018244
 H     18  17  16     2.186283555468   109.54623754    58.64961821
 H     18  17  16     2.183679009851   109.60677984   297.73277202
 H     17  16   9     2.172071391070   105.00506079   213.83278501
 H     17  16   9     2.176383428900   106.67661318   330.88683516
 H     16   9   8     2.194717713089   106.78183520   285.58251944
 H     16   9   8     2.192558724628   107.91099946    41.30196903
 C      1   2   3    80.803542230069   148.96263773   186.33064612
 C     26   1   2     2.637420154728    52.91080079   262.31674465
 C     27  26   1     2.701859246319   114.10128018   190.76754935
 C     28  27  26     2.642445527853   113.69354066     0.00000000
 S     26   1   2     3.133240867215   156.37389180   235.62096384
 H     27  26   1     2.153029930728   123.72188870    10.33775298
 C     28  27  26     3.042710092311   123.71027238   181.14487625
 C     32  28  27     3.182128384935   116.57642058    49.87494621
 C     33  32  28     3.193116948605   111.44752802   175.06447438
 H     34  33  32     2.191558177300   107.06883193   314.26841533
 H     34  33  32     2.190593235164   106.70516571   199.04083178
 H     33  32  28     2.167506973035   109.09454557   296.22209659
 H     33  32  28     2.177041858021   108.33561055    55.82684401
 H     32  28  27     2.181452107764   115.57623599   175.72686612
 H     32  28  27     2.230521043094   107.02557541   292.40721939
 C     34  33  32     3.068372453087   116.94314820    76.69902441
 C     41  34  33     3.182512189369   115.50812067    82.78114513
 C     42  41  34     3.179176486756   111.87714155   266.33632859
 H     43  42  41     2.186289015166   109.17730018   176.00627370
 H     43  42  41     2.183830043464   109.91126749    55.78874656
 H     43  42  41     2.188070155576   108.99054697   295.70985542
 H     42  41  34     2.175981655527   109.05862426    26.58167786
 H     42  41  34     2.176292453166   108.74013145   146.19058906
 H     41  34  33     2.187423061215   109.41578453   320.88803908
 H     41  34  33     2.191698801793   108.75527804   202.97507326
 H      1   2   3     2.003112922778   127.25986420   179.99934954
 H      4   3   2     2.003111682781   127.20547392   179.99969837
 H     26   1   2     2.003117990528    75.01360043    73.46289129
 H     29  28  27     2.003120372285   127.20603956   180.00077115

----------------------------
SLATER BASIS SET DIM= 120
----------------------------
  0 C     2 shells
 l=0 nsto= 1
    2       1.625000000000        1.000000000000
 l=1 nsto= 1
    2       1.625000000000        1.000000000000
  1 C     2 shells
 l=0 nsto= 1
    2       1.625000000000        1.000000000000
 l=1 nsto= 1
    2       1.625000000000        1.000000000000
  2 C     2 shells
 l=0 nsto= 1
    2       1.625000000000        1.000000000000
 l=1 nsto= 1
    2       1.625000000000        1.000000000000
  3 C     2 shells
 l=0 nsto= 1
    2       1.625000000000        1.000000000000
 l=1 nsto= 1
    2       1.625000000000        1.000000000000
  4 S     2 shells
 l=0 nsto= 1
    3       1.925000000000        1.000000000000
 l=1 nsto= 1
    3       1.925000000000        1.000000000000
  5 H     1 shells
 l=0 nsto= 1
    1       1.200000000000        1.000000000000
  6 C     2 shells
 l=0 nsto= 1
    2       1.625000000000        1.000000000000
 l=1 nsto= 1
    2       1.625000000000        1.000000000000
  7 C     2 shells
 l=0 nsto= 1
    2       1.625000000000        1.000000000000
 l=1 nsto= 1
    2       1.625000000000        1.000000000000
  8 C     2 shells
 l=0 nsto= 1
    2       1.625000000000        1.000000000000
 l=1 nsto= 1
    2       1.625000000000        1.000000000000
  9 H     1 shells
 l=0 nsto= 1
    1       1.200000000000        1.000000000000
 10 H     1 shells
 l=0 nsto= 1
    1       1.200000000000        1.000000000000
 11 H     1 shells
 l=0 nsto= 1
    1       1.200000000000        1.000000000000
 12 H     1 shells
 l=0 nsto= 1
    1       1.200000000000        1.000000000000
 13 H     1 shells
 l=0 nsto= 1
    1       1.200000000000        1.000000000000
 14 H     1 shells
 l=0 nsto= 1
    1       1.200000000000        1.000000000000
 15 C     2 shells
 l=0 nsto= 1
    2       1.625000000000        1.000000000000
 l=1 nsto= 1
    2       1.625000000000        1.000000000000
 16 C     2 shells
 l=0 nsto= 1
    2       1.625000000000        1.000000000000
 l=1 nsto= 1
    2       1.625000000000        1.000000000000
 17 C     2 shells
 l=0 nsto= 1
    2       1.625000000000        1.000000000000
 l=1 nsto= 1
    2       1.625000000000        1.000000000000
 18 H     1 shells
 l=0 nsto= 1
    1       1.200000000000        1.000000000000
 19 H     1 shells
 l=0 nsto= 1
    1       1.200000000000        1.000000000000
 20 H     1 shells
 l=0 nsto= 1
    1       1.200000000000        1.000000000000
 21 H     1 shells
 l=0 nsto= 1
    1       1.200000000000        1.000000000000
 22 H     1 shells
 l=0 nsto= 1
    1       1.200000000000        1.000000000000
 23 H     1 shells
 l=0 nsto= 1
    1       1.200000000000        1.000000000000
 24 H     1 shells
 l=0 nsto= 1
    1       1.200000000000        1.000000000000
 25 C     2 shells
 l=0 nsto= 1
    2       1.625000000000        1.000000000000
 l=1 nsto= 1
    2       1.625000000000        1.000000000000
 26 C     2 shells
 l=0 nsto= 1
    2       1.625000000000        1.000000000000
 l=1 nsto= 1
    2       1.625000000000        1.000000000000
 27 C     2 shells
 l=0 nsto= 1
    2       1.625000000000        1.000000000000
 l=1 nsto= 1
    2       1.625000000000        1.000000000000
 28 C     2 shells
 l=0 nsto= 1
    2       1.625000000000        1.000000000000
 l=1 nsto= 1
    2       1.625000000000        1.000000000000
 29 S     2 shells
 l=0 nsto= 1
    3       1.925000000000        1.000000000000
 l=1 nsto= 1
    3       1.925000000000        1.000000000000
 30 H     1 shells
 l=0 nsto= 1
    1       1.200000000000        1.000000000000
 31 C     2 shells
 l=0 nsto= 1
    2       1.625000000000        1.000000000000
 l=1 nsto= 1
    2       1.625000000000        1.000000000000
 32 C     2 shells
 l=0 nsto= 1
    2       1.625000000000        1.000000000000
 l=1 nsto= 1
    2       1.625000000000        1.000000000000
 33 C     2 shells
 l=0 nsto= 1
    2       1.625000000000        1.000000000000
 l=1 nsto= 1
    2       1.625000000000        1.000000000000
 34 H     1 shells
 l=0 nsto= 1
    1       1.200000000000        1.000000000000
 35 H     1 shells
 l=0 nsto= 1
    1       1.200000000000        1.000000000000
 36 H     1 shells
 l=0 nsto= 1
    1       1.200000000000        1.000000000000
 37 H     1 shells
 l=0 nsto= 1
    1       1.200000000000        1.000000000000
 38 H     1 shells
 l=0 nsto= 1
    1       1.200000000000        1.000000000000
 39 H     1 shells
 l=0 nsto= 1
    1       1.200000000000        1.000000000000
 40 C     2 shells
 l=0 nsto= 1
    2       1.625000000000        1.000000000000
 l=1 nsto= 1
    2       1.625000000000        1.000000000000
 41 C     2 shells
 l=0 nsto= 1
    2       1.625000000000        1.000000000000
 l=1 nsto= 1
    2       1.625000000000        1.000000000000
 42 C     2 shells
 l=0 nsto= 1
    2       1.625000000000        1.000000000000
 l=1 nsto= 1
    2       1.625000000000        1.000000000000
 43 H     1 shells
 l=0 nsto= 1
    1       1.200000000000        1.000000000000
 44 H     1 shells
 l=0 nsto= 1
    1       1.200000000000        1.000000000000
 45 H     1 shells
 l=0 nsto= 1
    1       1.200000000000        1.000000000000
 46 H     1 shells
 l=0 nsto= 1
    1       1.200000000000        1.000000000000
 47 H     1 shells
 l=0 nsto= 1
    1       1.200000000000        1.000000000000
 48 H     1 shells
 l=0 nsto= 1
    1       1.200000000000        1.000000000000
 49 H     1 shells
 l=0 nsto= 1
    1       1.200000000000        1.000000000000
 50 H     1 shells
 l=0 nsto= 1
    1       1.200000000000        1.000000000000
 51 H     1 shells
 l=0 nsto= 1
    1       1.200000000000        1.000000000000
 52 H     1 shells
 l=0 nsto= 1
    1       1.200000000000        1.000000000000
 53 H     1 shells
 l=0 nsto= 1
    1       1.200000000000        1.000000000000
------------------------------------------------------------------------------
                           ORCA NDO INTEGRAL CALCULATION
------------------------------------------------------------------------------

--------------
NDO PARAMETERS
--------------

Gamma integral treatment              ... Mataga-Nishimoto
Nuclear repulsuion treatment          ... Direct (ZA*ZB/RAB)
Interaction factors:
s-s (sigma) =    1.0000
s-p (sigma) =    1.0000
s-d (sigma) =    1.0000
p-p (sigma) =    1.2670  p-p(pi) =    0.5850
p-d (sigma) =    1.0000  p-d(pi) =    1.0000
d-d (sigma) =    1.0000  d-d(pi) =    1.0000 d-d (delta) =    1.0000

fGamma parameter for Mataga-Nishimoto gamma integrals:    1.2000

--------------------------
Parameters for Element H :
--------------------------
 One-electron parameters (in eV)
  U(s)  =   -13.060000 Beta(s) =    12.000000 Neff(s) =     1.000000
 One-center electron repulsion parameters (in eV)
  G(s,s)=    12.850000
--------------------------
Parameters for Element C :
--------------------------
 One-electron parameters (in eV)
  U(s)  =   -50.870766 Beta(s) =    17.000000 Neff(s) =     2.000000
  U(p)  =   -41.599980 Beta(p) =    17.000000 Neff(p) =     2.000000 
 One-center electron repulsion parameters (in eV)
  G(s,s)=    11.110000
  G(s,p)=    11.110000 G(p,p)  =    11.110000
 Slater-Condon parameters (in eV)
 F2(p,p)=     4.5098 G1(s,p)=    6.8977
--------------------------
Parameters for Element S :
--------------------------
 One-electron parameters (in eV)
  U(s)  =   -69.509597 Beta(s) =    15.000000 Neff(s) =     2.000000
  U(p)  =   -60.725746 Beta(p) =    15.000000 Neff(p) =     4.000000 
 One-center electron repulsion parameters (in eV)
  G(s,s)=    10.090000
  G(s,p)=    10.090000 G(p,p)  =    10.090000
 Slater-Condon parameters (in eV)
 F2(p,p)=     4.5377 G1(s,p)=    3.0756

 Number of atoms                    ....   54
 Number of basis functions          ....  120

 Overlap integrals                  .... done
 One electron matrix                .... done
 Nuclear repulsion                  .... done
 Integral list                      .... done
 Electron-electron repulsion        .... done
-------------------------------------------------------------------------------
                                 ORCA SCF
-------------------------------------------------------------------------------

------------
SCF SETTINGS
------------
Hamiltonian:
 ZDO-Hamiltonian        Method          .... INDO


General Settings:
 Integral files         IntName         .... /home/mattyjones/Software/morphct/tests/output_EZ/donor_polymer/chromophores/input_orca/pair/00007-00022
 Hartree-Fock type      HFTyp           .... RHF
 Total Charge           Charge          ....    0
 Multiplicity           Mult            ....    1
 Number of Electrons    NEL             ....  124
 Basis Dimension        Dim             ....  120
 Nuclear Repulsion      ENuc            ....    635.9488264801 Eh

Convergence Acceleration:
 DIIS                   CNVDIIS         .... on
   Start iteration      DIISMaxIt       ....    12
   Startup error        DIISStart       ....  0.200000
   # of expansion vecs  DIISMaxEq       ....     5
   Bias factor          DIISBfac        ....   1.050
   Max. coefficient     DIISMaxC        ....  10.000
 Newton-Raphson         CNVNR           .... off
 SOSCF                  CNVSOSCF        .... on
   Start iteration      SOSCFMaxIt      ....   150
   Startup grad/error   SOSCFStart      ....  0.003300
 Level Shifting         CNVShift        .... on
   Level shift para.    LevelShift      ....    0.2500
   Turn off err/grad.   ShiftErr        ....    0.0010
 Zerner damping         CNVZerner       .... off
 Static damping         CNVDamp         .... on
   Fraction old density DampFac         ....    0.7000
   Max. Damping (<1)    DampMax         ....    0.9800
   Min. Damping (>=0)   DampMin         ....    0.0000
   Turn off err/grad.   DampErr         ....    0.1000
 Fernandez-Rico         CNVRico         .... off

SCF Procedure:
 Maximum # iterations   MaxIter         ....   125
 SCF integral mode      SCFMode         .... Conventional
 Integral Buffer length BufferLength    .... 1048576
 Integral index format  IndFormat       ....     0
 Integral value format  ValFormat       ....     0
 Integral Storage       Thresh          ....  1.000e-08 Eh

Convergence Tolerance:
 Convergence Check Mode ConvCheckMode   .... Total+1el-Energy
 Convergence forced     ConvForced      .... 0
 Energy Change          TolE            ....  1.000e-06 Eh
 1-El. energy change                    ....  1.000e-03 Eh
 Orbital Gradient       TolG            ....  5.000e-05
 Orbital Rotation angle TolX            ....  5.000e-05
 DIIS Error             TolErr          ....  1.000e-06


Diagonalization of the overlap matrix:
Smallest eigenvalue                        ... 1.678e-01
Time for diagonalization                   ...    0.003 sec
Threshold for overlap eigenvalues          ... 1.000e-08
Number of eigenvalues below threshold      ... 0
Time for construction of square roots      ...    0.000 sec
Total time needed                          ...    0.003 sec

-------------------------------
INITIAL GUESS: EXTENDED HUECKEL
-------------------------------
EHT matrix was read from disk
EHT matrix was diagonalized
Initial density was built
                      ------------------
                      INITIAL GUESS DONE
                      ------------------

 InCore treatment chosen:
   Memory dedicated               ...    1024 MB
   Memory needed                  ...      0 MB
   Number of tiny    integrals    ...       0
   Number of small   integrals    ...       0
   Number of regular integrals    ...    7392

--------------
SCF ITERATIONS
--------------
ITER       Energy         Delta-E        Max-DP      RMS-DP      [F,P]     Damp
  0    -20.4385048168   0.000000000000 0.04782100  0.00150487  0.1222517 0.7000
  1    -20.4831597447  -0.044654927934 0.04636502  0.00142176  0.0837082 0.7000
                               ***Turning on DIIS***
  2    -20.5160947832  -0.032935038441 0.12137899  0.00365086  0.0508598 0.0000
  3    -20.5994214186  -0.083326635446 0.02214176  0.00075563  0.0225007 0.0000
  4    -20.5856094834   0.013811935216 0.01604401  0.00053133  0.0096601 0.0000
  5    -20.6038038203  -0.018194336903 0.01131953  0.00036109  0.0057566 0.0000
  6    -20.6063145153  -0.002510695049 0.00808468  0.00026029  0.0031874 0.0000
  7    -20.6027716246   0.003542890746 0.00455996  0.00015205  0.0017450 0.0000
                      *** Initiating the SOSCF procedure ***
                           *** Shutting down DIIS ***
                      *** Re-Reading the Fockian *** 
                      *** Removing any level shift *** 
ITER      Energy       Delta-E        Grad      Rot      Max-DP    RMS-DP
  8    -20.60172702   0.0010446065  0.001902  0.001902  0.002535  0.000080
  9    -20.60026517   0.0014618496  0.000538  0.001568  0.001334  0.000037
 10    -20.60027014  -0.0000049693  0.000251  0.001704  0.001610  0.000043
 11    -20.60027208  -0.0000019430  0.000044  0.000105  0.000150  0.000005
                 **** Energy Check signals convergence ****
              ***Rediagonalizing the Fockian in SOSCF/NRSCF***

               *****************************************************
               *                     SUCCESS                       *
               *           SCF CONVERGED AFTER  12 CYCLES          *
               *****************************************************


----------------
TOTAL SCF ENERGY
----------------

Total Energy       :          -20.60027214 Eh            -560.56190 eV

Components:
Nuclear Repulsion  :          635.94882648 Eh           17305.04734 eV
Electronic Energy  :         -656.54909862 Eh          -17865.60924 eV
One Electron Energy:        -1222.79993329 Eh          -33274.07781 eV
Two Electron Energy:          566.25083467 Eh           15408.46856 eV


---------------
SCF CONVERGENCE
---------------

  Last Energy change         ...   -5.4658e-08  Tolerance :   1.0000e-06
  Last MAX-Density change    ...    5.9075e-05  Tolerance :   1.0000e-05
  Last RMS-Density change    ...    1.5949e-06  Tolerance :   1.0000e-06
  Last Orbital Gradient      ...    1.6624e-05  Tolerance :   5.0000e-05
  Last Orbital Rotation      ...    3.9120e-05  Tolerance :   5.0000e-05

             **** THE GBW FILE WAS UPDATED (/home/mattyjones/Software/morphct/tests/output_EZ/donor_polymer/chromophores/input_orca/pair/00007-00022.gbw) ****
             **** DENSITY FILE WAS UPDATED (/home/mattyjones/Software/morphct/tests/output_EZ/donor_polymer/chromophores/input_orca/pair/00007-00022.scfp.tmp) ****
             **** ENERGY FILE WAS UPDATED (/home/mattyjones/Software/morphct/tests/output_EZ/donor_polymer/chromophores/input_orca/pair/00007-00022.en.tmp) ****
----------------
ORBITAL ENERGIES
----------------

  NO   OCC          E(Eh)            E(eV) 
   0   2.0000      -1.567325       -42.6491 
   1   2.0000      -1.557696       -42.3871 
   2   2.0000      -1.416141       -38.5352 
   3   2.0000      -1.388940       -37.7950 
   4   2.0000      -1.289241       -35.0820 
   5   2.0000      -1.287957       -35.0471 
   6   2.0000      -1.194939       -32.5160 
   7   2.0000      -1.175484       -31.9865 
   8   2.0000      -1.118109       -30.4253 
   9   2.0000      -1.115531       -30.3552 
  10   2.0000      -1.041541       -28.3418 
  11   2.0000      -1.021729       -27.8027 
  12   2.0000      -0.955601       -26.0032 
  13   2.0000      -0.950090       -25.8533 
  14   2.0000      -0.912126       -24.8202 
  15   2.0000      -0.895009       -24.3544 
  16   2.0000      -0.861670       -23.4472 
  17   2.0000      -0.859193       -23.3798 
  18   2.0000      -0.831409       -22.6238 
  19   2.0000      -0.828256       -22.5380 
  20   2.0000      -0.775639       -21.1062 
  21   2.0000      -0.756646       -20.5894 
  22   2.0000      -0.737163       -20.0592 
  23   2.0000      -0.724605       -19.7175 
  24   2.0000      -0.711243       -19.3539 
  25   2.0000      -0.693359       -18.8673 
  26   2.0000      -0.671311       -18.2673 
  27   2.0000      -0.665048       -18.0969 
  28   2.0000      -0.658041       -17.9062 
  29   2.0000      -0.641198       -17.4479 
  30   2.0000      -0.619513       -16.8578 
  31   2.0000      -0.614834       -16.7305 
  32   2.0000      -0.587531       -15.9875 
  33   2.0000      -0.582003       -15.8371 
  34   2.0000      -0.578728       -15.7480 
  35   2.0000      -0.573843       -15.6151 
  36   2.0000      -0.569121       -15.4866 
  37   2.0000      -0.567579       -15.4446 
  38   2.0000      -0.558563       -15.1993 
  39   2.0000      -0.553554       -15.0630 
  40   2.0000      -0.545942       -14.8558 
  41   2.0000      -0.534565       -14.5462 
  42   2.0000      -0.516837       -14.0639 
  43   2.0000      -0.515912       -14.0387 
  44   2.0000      -0.505908       -13.7664 
  45   2.0000      -0.502106       -13.6630 
  46   2.0000      -0.496600       -13.5132 
  47   2.0000      -0.492915       -13.4129 
  48   2.0000      -0.489080       -13.3086 
  49   2.0000      -0.481075       -13.0907 
  50   2.0000      -0.474630       -12.9153 
  51   2.0000      -0.471205       -12.8221 
  52   2.0000      -0.470748       -12.8097 
  53   2.0000      -0.466815       -12.7027 
  54   2.0000      -0.465202       -12.6588 
  55   2.0000      -0.454559       -12.3692 
  56   2.0000      -0.437369       -11.9014 
  57   2.0000      -0.412224       -11.2172 
  58   2.0000      -0.356228        -9.6935 
  59   2.0000      -0.342668        -9.3245 
  60   2.0000      -0.304575        -8.2879 
  61   2.0000      -0.304514        -8.2862 
  62   0.0000       0.000217         0.0059 
  63   0.0000       0.008075         0.2197 
  64   0.0000       0.050036         1.3615 
  65   0.0000       0.061971         1.6863 
  66   0.0000       0.070839         1.9276 
  67   0.0000       0.080379         2.1872 
  68   0.0000       0.088180         2.3995 
  69   0.0000       0.088274         2.4021 
  70   0.0000       0.105123         2.8606 
  71   0.0000       0.106049         2.8857 
  72   0.0000       0.107027         2.9124 
  73   0.0000       0.109286         2.9738 
  74   0.0000       0.122306         3.3281 
  75   0.0000       0.126189         3.4338 
  76   0.0000       0.141282         3.8445 
  77   0.0000       0.143787         3.9126 
  78   0.0000       0.157786         4.2936 
  79   0.0000       0.157846         4.2952 
  80   0.0000       0.164794         4.4843 
  81   0.0000       0.168705         4.5907 
  82   0.0000       0.171408         4.6642 
  83   0.0000       0.187358         5.0983 
  84   0.0000       0.203227         5.5301 
  85   0.0000       0.206756         5.6261 
  86   0.0000       0.220758         6.0071 
  87   0.0000       0.230867         6.2822 
  88   0.0000       0.234514         6.3815 
  89   0.0000       0.235635         6.4119 
  90   0.0000       0.235673         6.4130 
  91   0.0000       0.238176         6.4811 
  92   0.0000       0.239155         6.5077 
  93   0.0000       0.239438         6.5154 
  94   0.0000       0.240168         6.5353 
  95   0.0000       0.242069         6.5870 
  96   0.0000       0.243163         6.6168 
  97   0.0000       0.245204         6.6723 
  98   0.0000       0.245224         6.6729 
  99   0.0000       0.246275         6.7015 
 100   0.0000       0.246457         6.7064 
 101   0.0000       0.252629         6.8744 
 102   0.0000       0.257039         6.9944 
 103   0.0000       0.264609         7.2004 
 104   0.0000       0.266841         7.2611 
 105   0.0000       0.269518         7.3340 
 106   0.0000       0.282254         7.6805 
 107   0.0000       0.283892         7.7251 
 108   0.0000       0.302043         8.2190 
 109   0.0000       0.308102         8.3839 
 110   0.0000       0.310499         8.4491 
 111   0.0000       0.313497         8.5307 
 112   0.0000       0.327390         8.9087 
 113   0.0000       0.341870         9.3028 
 114   0.0000       0.352007         9.5786 
 115   0.0000       0.355018         9.6605 
 116   0.0000       0.411700        11.2029 
 117   0.0000       0.418240        11.3809 
 118   0.0000       0.425731        11.5847 
 119   0.0000       0.430957        11.7269 
-------
TIMINGS
-------

Total SCF time: 0 days 0 hours 0 min 0 sec 

Total time                  ....       0.581 sec
Sum of individual times     ....       0.102 sec  ( 17.6%)

Fock matrix formation       ....       0.049 sec  (  8.4%)
Diagonalization             ....       0.033 sec  (  5.7%)
Density matrix formation    ....       0.003 sec  (  0.6%)
Population analysis         ....       0.000 sec  (  0.0%)
Initial guess               ....       0.003 sec  (  0.5%)
Orbital Transformation      ....       0.000 sec  (  0.0%)
Orbital Orthonormalization  ....       0.000 sec  (  0.0%)
DIIS solution               ....       0.006 sec  (  1.0%)
SOSCF solution              ....       0.008 sec  (  1.4%)

-------------------------   --------------------
FINAL SINGLE POINT ENERGY       -20.600272135478
-------------------------   --------------------


                            ***************************************
                            *     ORCA property calculations      *
                            ***************************************

                                    ---------------------
                                    Active property flags
                                    ---------------------
   (+) Dipole Moment


------------------------------------------------------------------------------
                       ORCA ELECTRIC PROPERTIES CALCULATION
------------------------------------------------------------------------------

Dipole Moment Calculation                       ... on
Quadrupole Moment Calculation                   ... off
Polarizability Calculation                      ... off
GBWName                                         ... /home/mattyjones/Software/morphct/tests/output_EZ/donor_polymer/chromophores/input_orca/pair/00007-00022.gbw
Electron density file                           ... /home/mattyjones/Software/morphct/tests/output_EZ/donor_polymer/chromophores/input_orca/pair/00007-00022.scfp.tmp
The origin for moment calculation is the CENTER OF MASS  = (-1.624797, -1.413327  0.632016)

-------------
DIPOLE MOMENT
-------------
                                X             Y             Z
Electronic contribution:   -165.63175    -155.07947      67.42545
Nuclear contribution   :     97.60889      82.85612     -36.95021
                        -----------------------------------------
Total Dipole Moment    :    -68.02286     -72.22335      30.47524
                        -----------------------------------------
Magnitude (a.u.)       :    103.78855
Magnitude (Debye)      :    263.80952


Timings for individual modules:

Sum of individual times         ...        0.609 sec (=   0.010 min)
STO integral calculation        ...        0.018 sec (=   0.000 min)   3.0 %
SCF iterations                  ...        0.591 sec (=   0.010 min)  97.0 %
                             ****ORCA TERMINATED NORMALLY****
TOTAL RUN TIME: 0 days 0 hours 0 minutes 0 seconds 896 msec

