
                                 *****************
                                 * O   R   C   A *
                                 *****************

           --- An Ab Initio, DFT and Semiempirical electronic structure package ---

                  #######################################################
                  #                        -***-                        #
                  #  Department of molecular theory and spectroscopy    #
                  #              Directorship: Frank Neese              #
                  # Max Planck Institute for Chemical Energy Conversion #
                  #                  D-45470 Muelheim/Ruhr              #
                  #                       Germany                       #
                  #                                                     #
                  #                  All rights reserved                #
                  #                        -***-                        #
                  #######################################################


                         Program Version 4.0.1.2 - RELEASE -


 With contributions from (in alphabetic order):
   Daniel Aravena         : Magnetic Properties
   Michael Atanasov       : Ab Initio Ligand Field Theory
   Ute Becker             : Parallelization
   Martin Brehm           : Molecular dynamics
   Dmytro Bykov           : SCF Hessian
   Vijay G. Chilkuri      : MRCI spin determinant printing
   Dipayan Datta          : RHF DLPNO-CCSD density
   Achintya Kumar Dutta   : EOM-CC, STEOM-CC
   Dmitry Ganyushin       : Spin-Orbit,Spin-Spin,Magnetic field MRCI
   Yang Guo               : DLPNO-NEVPT2, CIM, IAO-localization
   Andreas Hansen         : Spin unrestricted coupled pair/coupled cluster methods
   Lee Huntington         : MR-EOM, pCC
   Robert Izsak           : Overlap fitted RIJCOSX, COSX-SCS-MP3, EOM
   Christian Kollmar      : KDIIS, OOCD, Brueckner-CCSD(T), CCSD density
   Simone Kossmann        : Meta GGA functionals, TD-DFT gradient, OOMP2, MP2 Hessian
   Martin Krupicka        : AUTO-CI
   Dagmar Lenk            : GEPOL surface
   Dimitrios Liakos       : Extrapolation schemes; parallel MDCI
   Dimitrios Manganas     : ROCIS; embedding schemes
   Dimitrios Pantazis     : SARC Basis sets
   Taras Petrenko         : DFT Hessian,TD-DFT gradient, ASA, ECA, R-Raman, ABS, FL, XAS/XES, NRVS
   Peter Pinski           : DLPNO-MP2
   Christoph Reimann      : Effective Core Potentials
   Marius Retegan         : Local ZFS, SOC
   Christoph Riplinger    : Optimizer, TS searches, QM/MM, DLPNO-CCSD(T), (RO)-DLPNO pert. Triples
   Tobias Risthaus        : Range-separated hybrids, TD-DFT gradient, RPA, STAB
   Michael Roemelt        : Restricted open shell CIS
   Masaaki Saitow         : Open-shell DLPNO
   Barbara Sandhoefer     : DKH picture change effects
   Kantharuban Sivalingam : CASSCF convergence, NEVPT2, FIC-MRCI
   Georgi Stoychev        : AutoAux
   Boris Wezisla          : Elementary symmetry handling
   Frank Wennmohs         : Technical directorship


 We gratefully acknowledge several colleagues who have allowed us to
 interface, adapt or use parts of their codes:
   Stefan Grimme, W. Hujo, H. Kruse,             : VdW corrections, initial TS optimization,
                  C. Bannwarth                     DFT functionals, gCP, sTDA/sTD-DF
   Ed Valeev                                     : LibInt (2-el integral package), F12 methods
   Garnet Chan, S. Sharma, J. Yang, R. Olivares  : DMRG
   Ulf Ekstrom                                   : XCFun DFT Library
   Mihaly Kallay                                 : mrcc  (arbitrary order and MRCC methods)
   Andreas Klamt, Michael Diedenhofen            : otool_cosmo (COSMO solvation model)
   Jiri Pittner, Ondrej Demel                    : Mk-CCSD
   Frank Weinhold                                : gennbo (NPA and NBO analysis)
   Christopher J. Cramer and Donald G. Truhlar   : smd solvation model


 Your calculation uses the libint2 library for the computation of 2-el integrals
 For citations please refer to: http://libint.valeyev.net

 This ORCA versions uses:
   CBLAS   interface :  Fast vector & matrix operations
   LAPACKE interface :  Fast linear algebra routines
   SCALAPACK package :  Parallel linear algebra routines


leaving
Your calculation utilizes the basis: def2-SVP
   F. Weigend and R. Ahlrichs, Phys. Chem. Chem. Phys. 7, 3297 (2005).

================================================================================
                                        WARNINGS
                       Please study these warnings very carefully!
================================================================================

Warning: TCutStore was < 0. Adjusted to Thresh (uncritical)

WARNING: Direct SCF is incompatible with Method<>HF and Method<>DFT
  ===> : conventional SCF is chosen

WARNING: The NDO methods need Guess=HUECKEL or Guess=HCORE or Guess=MOREAD
  ===> : Guess is set to Hueckel

WARNING: The NDO methods need %rel::SOCType==1
  ===> : %rel::SOCType is set to 1

WARNING: The NDO methods cannot have frozencore=1
  ===> : %method FrozenCore=0 end

INFO   : the flag for use of LIBINT has been found!

================================================================================
                                       INPUT FILE
================================================================================
NAME = /home/mattyjones/Software/morphct/tests/output_EZ/donor_polymer/chromophores/input_orca/pair/00001-00009.inp
|  1> # ================================================================
|  2> # Orca input file made by Matty Jones
|  3> # ================================================================
|  4> ! ZINDO/S 
|  5> ! NOPOP
|  6> ! NOMOPRINT
|  7> * xyz 0   1
|  8>  C  -12.58015  -33.40300  -11.56424
|  9>  C  -11.39868  -32.73349  -11.24210
| 10>  C  -10.57012  -33.42851  -10.30684
| 11>  C  -11.10002  -34.65301  -9.88836
| 12>  S  -12.54547  -34.80911  -10.68632
| 13>  H  -11.10768  -31.71498  -11.66988
| 14>  C  -9.09774  -33.07799  -9.62702
| 15>  C  -8.12538  -31.80407  -8.86943
| 16>  C  -6.88128  -30.77057  -9.45205
| 17>  H  -7.29513  -30.25156  -10.39475
| 18>  H  -6.00904  -31.46839  -9.75682
| 19>  H  -7.62828  -32.34128  -7.97630
| 20>  H  -8.93129  -31.07738  -8.47717
| 21>  H  -9.03976  -33.78627  -8.70513
| 22>  H  -8.31534  -33.44643  -10.42166
| 23>  C  -6.27836  -29.62395  -8.43418
| 24>  C  -5.23000  -29.91345  -7.10752
| 25>  C  -3.54611  -29.90758  -7.24585
| 26>  H  -3.24571  -29.83166  -8.35839
| 27>  H  -3.12811  -30.88961  -6.79491
| 28>  H  -3.11158  -29.00706  -6.66136
| 29>  H  -5.47876  -29.08052  -6.34289
| 30>  H  -5.53447  -30.93223  -6.66188
| 31>  H  -7.18263  -29.05719  -7.98463
| 32>  H  -5.68133  -28.88219  -9.09953
| 33>  C  3.09694  30.26775  8.83133
| 34>  C  4.29589  30.96398  8.99163
| 35>  C  5.11899  30.47271  10.05250
| 36>  C  4.56720  29.38306  10.73332
| 37>  S  3.11046  29.08894  9.99723
| 38>  H  4.48672  31.95197  8.45478
| 39>  C  6.52145  31.23981  10.26813
| 40>  C  7.24619  31.59843  8.75797
| 41>  C  8.67699  32.47215  8.56479
| 42>  H  8.82692  33.06439  9.55212
| 43>  H  8.47383  33.23993  7.71752
| 44>  H  7.42531  30.57126  8.25945
| 45>  H  6.47838  32.18917  8.13163
| 46>  H  6.35309  32.23825  10.82941
| 47>  H  7.26535  30.58467  10.87010
| 48>  C  10.05982  31.69312  8.22253
| 49>  C  11.32197  32.78728  7.93451
| 50>  C  12.14957  33.20046  9.33586
| 51>  H  12.76331  34.16362  9.15032
| 52>  H  12.86105  32.33505  9.62569
| 53>  H  11.39080  33.38251  10.19091
| 54>  H  12.06014  32.30614  7.19337
| 55>  H  10.88331  33.74709  7.47108
| 56>  H  9.92422  31.05650  7.26713
| 57>  H  10.36326  31.00290  9.09572
| 58>  H  -13.33952  -33.08055  -12.22981
| 59>  H  -10.66824  -35.33804  -9.20433
| 60>  H  2.33780  30.45343  8.11521
| 61>  H  4.99122  28.85551  11.54909
| 62> *
| 63> 
| 64>                          ****END OF INPUT****
================================================================================

                       ****************************
                       * Single Point Calculation *
                       ****************************

---------------------------------
CARTESIAN COORDINATES (ANGSTROEM)
---------------------------------
  C    -12.580150  -33.403000  -11.564240
  C    -11.398680  -32.733490  -11.242100
  C    -10.570120  -33.428510  -10.306840
  C    -11.100020  -34.653010   -9.888360
  S    -12.545470  -34.809110  -10.686320
  H    -11.107680  -31.714980  -11.669880
  C     -9.097740  -33.077990   -9.627020
  C     -8.125380  -31.804070   -8.869430
  C     -6.881280  -30.770570   -9.452050
  H     -7.295130  -30.251560  -10.394750
  H     -6.009040  -31.468390   -9.756820
  H     -7.628280  -32.341280   -7.976300
  H     -8.931290  -31.077380   -8.477170
  H     -9.039760  -33.786270   -8.705130
  H     -8.315340  -33.446430  -10.421660
  C     -6.278360  -29.623950   -8.434180
  C     -5.230000  -29.913450   -7.107520
  C     -3.546110  -29.907580   -7.245850
  H     -3.245710  -29.831660   -8.358390
  H     -3.128110  -30.889610   -6.794910
  H     -3.111580  -29.007060   -6.661360
  H     -5.478760  -29.080520   -6.342890
  H     -5.534470  -30.932230   -6.661880
  H     -7.182630  -29.057190   -7.984630
  H     -5.681330  -28.882190   -9.099530
  C      3.096940   30.267750    8.831330
  C      4.295890   30.963980    8.991630
  C      5.118990   30.472710   10.052500
  C      4.567200   29.383060   10.733320
  S      3.110460   29.088940    9.997230
  H      4.486720   31.951970    8.454780
  C      6.521450   31.239810   10.268130
  C      7.246190   31.598430    8.757970
  C      8.676990   32.472150    8.564790
  H      8.826920   33.064390    9.552120
  H      8.473830   33.239930    7.717520
  H      7.425310   30.571260    8.259450
  H      6.478380   32.189170    8.131630
  H      6.353090   32.238250   10.829410
  H      7.265350   30.584670   10.870100
  C     10.059820   31.693120    8.222530
  C     11.321970   32.787280    7.934510
  C     12.149570   33.200460    9.335860
  H     12.763310   34.163620    9.150320
  H     12.861050   32.335050    9.625690
  H     11.390800   33.382510   10.190910
  H     12.060140   32.306140    7.193370
  H     10.883310   33.747090    7.471080
  H      9.924220   31.056500    7.267130
  H     10.363260   31.002900    9.095720
  H    -13.339520  -33.080550  -12.229810
  H    -10.668240  -35.338040   -9.204330
  H      2.337800   30.453430    8.115210
  H      4.991220   28.855510   11.549090

----------------------------
CARTESIAN COORDINATES (A.U.)
----------------------------
  NO LB      ZA    FRAG     MASS         X           Y           Z
   0 C     4.0000    0    12.011  -23.773038  -63.122522  -21.853247
   1 C     4.0000    0    12.011  -21.540383  -61.857332  -21.244490
   2 C     4.0000    0    12.011  -19.974632  -63.170729  -19.477105
   3 C     4.0000    0    12.011  -20.975998  -65.484699  -18.686292
   4 S     6.0000    0    32.060  -23.707503  -65.779685  -20.194218
   5 H     1.0000    0     1.008  -20.990473  -59.932627  -22.052877
   6 C     4.0000    0    12.011  -17.192237  -62.508342  -18.192431
   7 C     4.0000    0    12.011  -15.354743  -60.100982  -16.760794
   8 C     4.0000    0    12.011  -13.003735  -58.147950  -17.861786
   9 H     1.0000    0     1.008  -13.785798  -57.167164  -19.643231
  10 H     1.0000    0     1.008  -11.355440  -59.466639  -18.437718
  11 H     1.0000    0     1.008  -14.415360  -61.116162  -15.073023
  12 H     1.0000    0     1.008  -16.877692  -58.727737  -16.019530
  13 H     1.0000    0     1.008  -17.082671  -63.846797  -16.450312
  14 H     1.0000    0     1.008  -15.713715  -63.204593  -19.694083
  15 C     4.0000    0    12.011  -11.864381  -55.981153  -15.938290
  16 C     4.0000    0    12.011   -9.883268  -56.528228  -13.431266
  17 C     4.0000    0    12.011   -6.701177  -56.517136  -13.692672
  18 H     1.0000    0     1.008   -6.133503  -56.373668  -15.795068
  19 H     1.0000    0     1.008   -5.911271  -58.372903  -12.840519
  20 H     1.0000    0     1.008   -5.880034  -54.815399  -12.588146
  21 H     1.0000    0     1.008  -10.353356  -54.954219  -11.986325
  22 H     1.0000    0     1.008  -10.458633  -58.453443  -12.589129
  23 H     1.0000    0     1.008  -13.573204  -54.910131  -15.088764
  24 H     1.0000    0     1.008  -10.736158  -54.579429  -17.195620
  25 C     4.0000    0    12.011    5.852368   57.197758   16.688795
  26 C     4.0000    0    12.011    8.118056   58.513442   16.991718
  27 C     4.0000    0    12.011    9.673489   57.585076   18.996472
  28 C     4.0000    0    12.011    8.630757   55.525936   20.283035
  29 S     6.0000    0    32.060    5.877918   54.970130   18.892027
  30 H     1.0000    0     1.008    8.478672   60.380473   15.977219
  31 C     4.0000    0    12.011   12.323754   59.034685   19.403954
  32 C     4.0000    0    12.011   13.693315   59.712379   16.550165
  33 C     4.0000    0    12.011   16.397135   61.363470   16.185107
  34 H     1.0000    0     1.008   16.680461   62.482642   18.050891
  35 H     1.0000    0     1.008   16.013218   62.814364   14.583999
  36 H     1.0000    0     1.008   14.031802   57.771309   15.608099
  37 H     1.0000    0     1.008   12.242364   60.828716   15.366554
  38 H     1.0000    0     1.008   12.005600   60.921464   20.464619
  39 H     1.0000    0     1.008   13.729522   57.796650   20.541512
  40 C     4.0000    0    12.011   19.010305   59.891317   15.538330
  41 C     4.0000    0    12.011   21.395423   61.958980   14.994051
  42 C     4.0000    0    12.011   22.959360   62.739777   17.642219
  43 H     1.0000    0     1.008   24.119160   64.559886   17.291599
  44 H     1.0000    0     1.008   24.303862   61.104389   18.189918
  45 H     1.0000    0     1.008   21.525492   63.083802   19.258029
  46 H     1.0000    0     1.008   22.790362   61.049757   13.593499
  47 H     1.0000    0     1.008   20.566475   63.772758   14.118295
  48 H     1.0000    0     1.008   18.754058   58.688280   13.732885
  49 H     1.0000    0     1.008   19.583723   58.586990   17.188420
  50 H     1.0000    0     1.008  -25.208040  -62.513180  -23.110992
  51 H     1.0000    0     1.008  -20.160052  -66.779218  -17.393663
  52 H     1.0000    0     1.008    4.417802   57.548643   15.335524
  53 H     1.0000    0     1.008    9.432039   54.529011   21.824617

--------------------------------
INTERNAL COORDINATES (ANGSTROEM)
--------------------------------
 C      0   0   0     0.000000000000     0.00000000     0.00000000
 C      1   0   0     1.395668005150     0.00000000     0.00000000
 C      2   1   0     1.429781711171   114.10179055     0.00000000
 C      3   2   1     1.398327490397   113.69280887     0.00000000
 S      1   2   3     1.658038467859   105.47969067     0.00000000
 H      2   1   3     1.142383188120   123.84128658   180.58488508
 C      3   2   1     1.659193288077   132.81044649   179.41844812
 C      7   3   2     1.772653024170   144.45933811    44.36106919
 C      8   7   3     1.719114052179   133.17004839   259.99658877
 H      9   8   7     1.152964220000   106.73595511    53.05009160
 H      9   8   7     1.157860148248   105.78653298   296.99088971
 H      8   7   3     1.154722560185   103.43608500   136.71675150
 H      8   7   3     1.153879192897   102.40163480    23.09542879
 H      7   3   2     1.164003183372   103.89595433   162.59078773
 H      7   3   2     1.174457544231   104.33997187   275.84251186
 C      9   8   7     1.647516096340   118.28502601   176.08041613
 C     16   9   8     1.715487013999   125.73096082    73.91868645
 C     17  16   9     1.689572483766   123.03544052    89.84847388
 H     18  17  16     1.154880625000   109.77565806   352.18887190
 H     18  17  16     1.158643087624   108.95007815   232.06486090
 H     18  17  16     1.158180103179   109.59107490   112.75982244
 H     17  16   9     1.157718860259   104.95379423   209.96482906
 H     17  16   9     1.152913560897   106.65800638   325.41076084
 H     16   9   8     1.158022596066   107.13932089   310.10539796
 H     16   9   8     1.161612388450   106.17855609   194.73078732
 C     21  18  17    61.579804031538   155.95410025   305.51081044
 C     26  21  18     1.395676683691   126.56118169   226.77577033
 C     27  26  21     1.429784941801   114.10143783   296.68520116
 C     28  27  26     1.398329431500   113.69302602     0.00000000
 S     26  21  18     1.658040595552    59.56101618   139.66355888
 H     27  26  21     1.140503507886   121.45387540   127.95877079
 C     28  27  26     1.613019763828   115.86917051   179.53941307
 C     32  28  27     1.713020606298   110.46037432   318.87204200
 C     33  32  28     1.687570380992   124.61148963   176.34652427
 H     34  33  32     1.161054585883   106.03547929   340.39694347
 H     34  33  32     1.161303821960   106.11043096   225.92977391
 H     33  32  28     1.155718120348   105.05677798   298.83768346
 H     33  32  28     1.153606405712   107.71359769    54.82851844
 H     32  28  27     1.157697180441   110.39654828    78.20579930
 H     32  28  27     1.159725618627   111.00492713   199.44169116
 C     34  33  32     1.623652813073   119.85529635   103.19636650
 C     41  34  33     1.695041075756   111.11707106   174.72930558
 C     42  41  34     1.679113246598   112.58376234    89.16355316
 H     43  42  41     1.157056206414   109.41723206   197.19572363
 H     43  42  41     1.157212032170   109.14962839    77.18488326
 H     43  42  41     1.157577046205   109.39572202   317.25708039
 H     42  41  34     1.151381408613   108.48254680   209.76577724
 H     42  41  34     1.152573293374   108.81272714   328.77794861
 H     41  34  33     1.156054299936   109.78728362    55.81908981
 H     41  34  33     1.153663841030   110.58032919   295.40918739
 H      1   2   3     1.060000105802   127.26066502   179.99983307
 H      4   3   2     1.059998636886   127.20581518   179.99987870
 H     26  21  18     1.059999271887    85.78149581     1.29137899
 H     29  28  27     1.059991818742   127.20581647   180.00041127

---------------------------
INTERNAL COORDINATES (A.U.)
---------------------------
 C      0   0   0     0.000000000000     0.00000000     0.00000000
 C      1   0   0     2.637430303610     0.00000000     0.00000000
 C      2   1   0     2.701895865403   114.10179055     0.00000000
 C      3   2   1     2.642456002384   113.69280887     0.00000000
 S      1   2   3     3.133238623760   105.47969067     0.00000000
 H      2   1   3     2.158791365543   123.84128658   180.58488508
 C      3   2   1     3.135420917706   132.81044649   179.41844812
 C      7   3   2     3.349828746149   144.45933811    44.36106919
 C      8   7   3     3.248654751594   133.17004839   259.99658877
 H      9   8   7     2.178786618010   106.73595511    53.05009160
 H      9   8   7     2.188038581569   105.78653298   296.99088971
 H      8   7   3     2.182109399410   103.43608500   136.71675150
 H      8   7   3     2.180515666205   102.40163480    23.09542879
 H      7   3   2     2.199647235585   103.89595433   162.59078773
 H      7   3   2     2.219403114513   104.33997187   275.84251186
 C      9   8   7     3.113354223310   118.28502601   176.08041613
 C     16   9   8     3.241800642757   125.73096082    73.91868645
 C     17  16   9     3.192829277727   123.03544052    89.84847388
 H     18  17  16     2.182408098621   109.77565806   352.18887190
 H     18  17  16     2.189518122571   108.95007815   232.06486090
 H     18  17  16     2.188643208765   109.59107490   112.75982244
 H     17  16   9     2.187771585965   104.95379423   209.96482906
 H     17  16   9     2.178690886179   106.65800638   325.41076084
 H     16   9   8     2.188345563458   107.13932089   310.10539796
 H     16   9   8     2.195129287940   106.17855609   194.73078732
 C     21  18  17   116.368965000146   155.95410025   305.51081044
 C     26  21  18     2.637446703676   126.56118169   226.77577033
 C     27  26  21     2.701901970408   114.10143783   296.68520116
 C     28  27  26     2.642459670537   113.69302602     0.00000000
 S     26  21  18     3.133242644518    59.56101618   139.66355888
 H     27  26  21     2.155239284681   121.45387540   127.95877079
 C     28  27  26     3.048165602237   115.86917051   179.53941307
 C     32  28  27     3.237139807666   110.46037432   318.87204200
 C     33  32  28     3.189045851791   124.61148963   176.34652427
 H     34  33  32     2.194075193852   106.03547929   340.39694347
 H     34  33  32     2.194546181781   106.11043096   225.92977391
 H     33  32  28     2.183990735467   105.05677798   298.83768346
 H     33  32  28     2.180000173133   107.71359769    54.82851844
 H     32  28  27     2.187730617045   110.39654828    78.20579930
 H     32  28  27     2.191563809698   111.00492713   199.44169116
 C     34  33  32     3.068259153279   119.85529635   103.19636650
 C     41  34  33     3.203163418926   111.11707106   174.72930558
 C     42  41  34     3.173064183909   112.58376234    89.16355316
 H     43  42  41     2.186519351675   109.41723206   197.19572363
 H     43  42  41     2.186813819681   109.14962839    77.18488326
 H     43  42  41     2.187503596240   109.39572202   317.25708039
 H     42  41  34     2.175795537967   108.48254680   209.76577724
 H     42  41  34     2.178047873749   108.81272714   328.77794861
 H     41  34  33     2.184626022821   109.78728362    55.81908981
 H     41  34  33     2.180108710154   110.58032919   295.40918739
 H      1   2   3     2.003109901893   127.26066502   179.99983307
 H      4   3   2     2.003107126044   127.20581518   179.99987870
 H     26  21  18     2.003108326021    85.78149581     1.29137899
 H     29  28  27     2.003094241620   127.20581647   180.00041127

----------------------------
SLATER BASIS SET DIM= 120
----------------------------
  0 C     2 shells
 l=0 nsto= 1
    2       1.625000000000        1.000000000000
 l=1 nsto= 1
    2       1.625000000000        1.000000000000
  1 C     2 shells
 l=0 nsto= 1
    2       1.625000000000        1.000000000000
 l=1 nsto= 1
    2       1.625000000000        1.000000000000
  2 C     2 shells
 l=0 nsto= 1
    2       1.625000000000        1.000000000000
 l=1 nsto= 1
    2       1.625000000000        1.000000000000
  3 C     2 shells
 l=0 nsto= 1
    2       1.625000000000        1.000000000000
 l=1 nsto= 1
    2       1.625000000000        1.000000000000
  4 S     2 shells
 l=0 nsto= 1
    3       1.925000000000        1.000000000000
 l=1 nsto= 1
    3       1.925000000000        1.000000000000
  5 H     1 shells
 l=0 nsto= 1
    1       1.200000000000        1.000000000000
  6 C     2 shells
 l=0 nsto= 1
    2       1.625000000000        1.000000000000
 l=1 nsto= 1
    2       1.625000000000        1.000000000000
  7 C     2 shells
 l=0 nsto= 1
    2       1.625000000000        1.000000000000
 l=1 nsto= 1
    2       1.625000000000        1.000000000000
  8 C     2 shells
 l=0 nsto= 1
    2       1.625000000000        1.000000000000
 l=1 nsto= 1
    2       1.625000000000        1.000000000000
  9 H     1 shells
 l=0 nsto= 1
    1       1.200000000000        1.000000000000
 10 H     1 shells
 l=0 nsto= 1
    1       1.200000000000        1.000000000000
 11 H     1 shells
 l=0 nsto= 1
    1       1.200000000000        1.000000000000
 12 H     1 shells
 l=0 nsto= 1
    1       1.200000000000        1.000000000000
 13 H     1 shells
 l=0 nsto= 1
    1       1.200000000000        1.000000000000
 14 H     1 shells
 l=0 nsto= 1
    1       1.200000000000        1.000000000000
 15 C     2 shells
 l=0 nsto= 1
    2       1.625000000000        1.000000000000
 l=1 nsto= 1
    2       1.625000000000        1.000000000000
 16 C     2 shells
 l=0 nsto= 1
    2       1.625000000000        1.000000000000
 l=1 nsto= 1
    2       1.625000000000        1.000000000000
 17 C     2 shells
 l=0 nsto= 1
    2       1.625000000000        1.000000000000
 l=1 nsto= 1
    2       1.625000000000        1.000000000000
 18 H     1 shells
 l=0 nsto= 1
    1       1.200000000000        1.000000000000
 19 H     1 shells
 l=0 nsto= 1
    1       1.200000000000        1.000000000000
 20 H     1 shells
 l=0 nsto= 1
    1       1.200000000000        1.000000000000
 21 H     1 shells
 l=0 nsto= 1
    1       1.200000000000        1.000000000000
 22 H     1 shells
 l=0 nsto= 1
    1       1.200000000000        1.000000000000
 23 H     1 shells
 l=0 nsto= 1
    1       1.200000000000        1.000000000000
 24 H     1 shells
 l=0 nsto= 1
    1       1.200000000000        1.000000000000
 25 C     2 shells
 l=0 nsto= 1
    2       1.625000000000        1.000000000000
 l=1 nsto= 1
    2       1.625000000000        1.000000000000
 26 C     2 shells
 l=0 nsto= 1
    2       1.625000000000        1.000000000000
 l=1 nsto= 1
    2       1.625000000000        1.000000000000
 27 C     2 shells
 l=0 nsto= 1
    2       1.625000000000        1.000000000000
 l=1 nsto= 1
    2       1.625000000000        1.000000000000
 28 C     2 shells
 l=0 nsto= 1
    2       1.625000000000        1.000000000000
 l=1 nsto= 1
    2       1.625000000000        1.000000000000
 29 S     2 shells
 l=0 nsto= 1
    3       1.925000000000        1.000000000000
 l=1 nsto= 1
    3       1.925000000000        1.000000000000
 30 H     1 shells
 l=0 nsto= 1
    1       1.200000000000        1.000000000000
 31 C     2 shells
 l=0 nsto= 1
    2       1.625000000000        1.000000000000
 l=1 nsto= 1
    2       1.625000000000        1.000000000000
 32 C     2 shells
 l=0 nsto= 1
    2       1.625000000000        1.000000000000
 l=1 nsto= 1
    2       1.625000000000        1.000000000000
 33 C     2 shells
 l=0 nsto= 1
    2       1.625000000000        1.000000000000
 l=1 nsto= 1
    2       1.625000000000        1.000000000000
 34 H     1 shells
 l=0 nsto= 1
    1       1.200000000000        1.000000000000
 35 H     1 shells
 l=0 nsto= 1
    1       1.200000000000        1.000000000000
 36 H     1 shells
 l=0 nsto= 1
    1       1.200000000000        1.000000000000
 37 H     1 shells
 l=0 nsto= 1
    1       1.200000000000        1.000000000000
 38 H     1 shells
 l=0 nsto= 1
    1       1.200000000000        1.000000000000
 39 H     1 shells
 l=0 nsto= 1
    1       1.200000000000        1.000000000000
 40 C     2 shells
 l=0 nsto= 1
    2       1.625000000000        1.000000000000
 l=1 nsto= 1
    2       1.625000000000        1.000000000000
 41 C     2 shells
 l=0 nsto= 1
    2       1.625000000000        1.000000000000
 l=1 nsto= 1
    2       1.625000000000        1.000000000000
 42 C     2 shells
 l=0 nsto= 1
    2       1.625000000000        1.000000000000
 l=1 nsto= 1
    2       1.625000000000        1.000000000000
 43 H     1 shells
 l=0 nsto= 1
    1       1.200000000000        1.000000000000
 44 H     1 shells
 l=0 nsto= 1
    1       1.200000000000        1.000000000000
 45 H     1 shells
 l=0 nsto= 1
    1       1.200000000000        1.000000000000
 46 H     1 shells
 l=0 nsto= 1
    1       1.200000000000        1.000000000000
 47 H     1 shells
 l=0 nsto= 1
    1       1.200000000000        1.000000000000
 48 H     1 shells
 l=0 nsto= 1
    1       1.200000000000        1.000000000000
 49 H     1 shells
 l=0 nsto= 1
    1       1.200000000000        1.000000000000
 50 H     1 shells
 l=0 nsto= 1
    1       1.200000000000        1.000000000000
 51 H     1 shells
 l=0 nsto= 1
    1       1.200000000000        1.000000000000
 52 H     1 shells
 l=0 nsto= 1
    1       1.200000000000        1.000000000000
 53 H     1 shells
 l=0 nsto= 1
    1       1.200000000000        1.000000000000
------------------------------------------------------------------------------
                           ORCA NDO INTEGRAL CALCULATION
------------------------------------------------------------------------------

--------------
NDO PARAMETERS
--------------

Gamma integral treatment              ... Mataga-Nishimoto
Nuclear repulsuion treatment          ... Direct (ZA*ZB/RAB)
Interaction factors:
s-s (sigma) =    1.0000
s-p (sigma) =    1.0000
s-d (sigma) =    1.0000
p-p (sigma) =    1.2670  p-p(pi) =    0.5850
p-d (sigma) =    1.0000  p-d(pi) =    1.0000
d-d (sigma) =    1.0000  d-d(pi) =    1.0000 d-d (delta) =    1.0000

fGamma parameter for Mataga-Nishimoto gamma integrals:    1.2000

--------------------------
Parameters for Element H :
--------------------------
 One-electron parameters (in eV)
  U(s)  =   -13.060000 Beta(s) =    12.000000 Neff(s) =     1.000000
 One-center electron repulsion parameters (in eV)
  G(s,s)=    12.850000
--------------------------
Parameters for Element C :
--------------------------
 One-electron parameters (in eV)
  U(s)  =   -50.870766 Beta(s) =    17.000000 Neff(s) =     2.000000
  U(p)  =   -41.599980 Beta(p) =    17.000000 Neff(p) =     2.000000 
 One-center electron repulsion parameters (in eV)
  G(s,s)=    11.110000
  G(s,p)=    11.110000 G(p,p)  =    11.110000
 Slater-Condon parameters (in eV)
 F2(p,p)=     4.5098 G1(s,p)=    6.8977
--------------------------
Parameters for Element S :
--------------------------
 One-electron parameters (in eV)
  U(s)  =   -69.509597 Beta(s) =    15.000000 Neff(s) =     2.000000
  U(p)  =   -60.725746 Beta(p) =    15.000000 Neff(p) =     4.000000 
 One-center electron repulsion parameters (in eV)
  G(s,s)=    10.090000
  G(s,p)=    10.090000 G(p,p)  =    10.090000
 Slater-Condon parameters (in eV)
 F2(p,p)=     4.5377 G1(s,p)=    3.0756

 Number of atoms                    ....   54
 Number of basis functions          ....  120

 Overlap integrals                  .... done
 One electron matrix                .... done
 Nuclear repulsion                  .... done
 Integral list                      .... done
 Electron-electron repulsion        .... done
-------------------------------------------------------------------------------
                                 ORCA SCF
-------------------------------------------------------------------------------

------------
SCF SETTINGS
------------
Hamiltonian:
 ZDO-Hamiltonian        Method          .... INDO


General Settings:
 Integral files         IntName         .... /home/mattyjones/Software/morphct/tests/output_EZ/donor_polymer/chromophores/input_orca/pair/00001-00009
 Hartree-Fock type      HFTyp           .... RHF
 Total Charge           Charge          ....    0
 Multiplicity           Mult            ....    1
 Number of Electrons    NEL             ....  124
 Basis Dimension        Dim             ....  120
 Nuclear Repulsion      ENuc            ....    602.7179644547 Eh

Convergence Acceleration:
 DIIS                   CNVDIIS         .... on
   Start iteration      DIISMaxIt       ....    12
   Startup error        DIISStart       ....  0.200000
   # of expansion vecs  DIISMaxEq       ....     5
   Bias factor          DIISBfac        ....   1.050
   Max. coefficient     DIISMaxC        ....  10.000
 Newton-Raphson         CNVNR           .... off
 SOSCF                  CNVSOSCF        .... on
   Start iteration      SOSCFMaxIt      ....   150
   Startup grad/error   SOSCFStart      ....  0.003300
 Level Shifting         CNVShift        .... on
   Level shift para.    LevelShift      ....    0.2500
   Turn off err/grad.   ShiftErr        ....    0.0010
 Zerner damping         CNVZerner       .... off
 Static damping         CNVDamp         .... on
   Fraction old density DampFac         ....    0.7000
   Max. Damping (<1)    DampMax         ....    0.9800
   Min. Damping (>=0)   DampMin         ....    0.0000
   Turn off err/grad.   DampErr         ....    0.1000
 Fernandez-Rico         CNVRico         .... off

SCF Procedure:
 Maximum # iterations   MaxIter         ....   125
 SCF integral mode      SCFMode         .... Conventional
 Integral Buffer length BufferLength    .... 1048576
 Integral index format  IndFormat       ....     0
 Integral value format  ValFormat       ....     0
 Integral Storage       Thresh          ....  1.000e-08 Eh

Convergence Tolerance:
 Convergence Check Mode ConvCheckMode   .... Total+1el-Energy
 Convergence forced     ConvForced      .... 0
 Energy Change          TolE            ....  1.000e-06 Eh
 1-El. energy change                    ....  1.000e-03 Eh
 Orbital Gradient       TolG            ....  5.000e-05
 Orbital Rotation angle TolX            ....  5.000e-05
 DIIS Error             TolErr          ....  1.000e-06


Diagonalization of the overlap matrix:
Smallest eigenvalue                        ... 1.696e-01
Time for diagonalization                   ...    0.003 sec
Threshold for overlap eigenvalues          ... 1.000e-08
Number of eigenvalues below threshold      ... 0
Time for construction of square roots      ...    0.000 sec
Total time needed                          ...    0.003 sec

-------------------------------
INITIAL GUESS: EXTENDED HUECKEL
-------------------------------
EHT matrix was read from disk
EHT matrix was diagonalized
Initial density was built
                      ------------------
                      INITIAL GUESS DONE
                      ------------------

 InCore treatment chosen:
   Memory dedicated               ...    1024 MB
   Memory needed                  ...      0 MB
   Number of tiny    integrals    ...       0
   Number of small   integrals    ...       0
   Number of regular integrals    ...    7392

--------------
SCF ITERATIONS
--------------
ITER       Energy         Delta-E        Max-DP      RMS-DP      [F,P]     Damp
  0    -22.7038238281   0.000000000000 0.04103360  0.00144335  0.0973468 0.7000
  1    -22.7455367952  -0.041712967109 0.03825408  0.00135824  0.0691881 0.7000
                               ***Turning on DIIS***
  2    -22.7764107430  -0.030873947746 0.09552603  0.00348275  0.0448203 0.0000
  3    -22.8577038697  -0.081293126703 0.01399338  0.00071762  0.0190195 0.0000
  4    -22.8419863417   0.015717527965 0.00989532  0.00049105  0.0064165 0.0000
  5    -22.8589864187  -0.017000076943 0.00690568  0.00033208  0.0036944 0.0000
  6    -22.8615118643  -0.002525445687 0.00507257  0.00023594  0.0019668 0.0000
                      *** Initiating the SOSCF procedure ***
                           *** Shutting down DIIS ***
                      *** Re-Reading the Fockian *** 
                      *** Removing any level shift *** 
ITER      Energy       Delta-E        Grad      Rot      Max-DP    RMS-DP
  7    -22.85751333   0.0039985368  0.003016  0.003016  0.003020  0.000133
  8    -22.85569948   0.0018138445  0.000812  0.002241  0.001504  0.000062
  9    -22.85571421  -0.0000147246  0.000358  0.002182  0.001687  0.000066
 10    -22.85571961  -0.0000054052  0.000031  0.000084  0.000112  0.000004
                 **** Energy Check signals convergence ****
              ***Rediagonalizing the Fockian in SOSCF/NRSCF***

               *****************************************************
               *                     SUCCESS                       *
               *           SCF CONVERGED AFTER  11 CYCLES          *
               *****************************************************


----------------
TOTAL SCF ENERGY
----------------

Total Energy       :          -22.85571966 Eh            -621.93575 eV

Components:
Nuclear Repulsion  :          602.71796445 Eh           16400.78961 eV
Electronic Energy  :         -625.57368412 Eh          -17022.72536 eV
One Electron Energy:        -1160.90041861 Eh          -31589.70638 eV
Two Electron Energy:          535.32673449 Eh           14566.98102 eV


---------------
SCF CONVERGENCE
---------------

  Last Energy change         ...   -4.9324e-08  Tolerance :   1.0000e-06
  Last MAX-Density change    ...    5.2390e-05  Tolerance :   1.0000e-05
  Last RMS-Density change    ...    1.3353e-06  Tolerance :   1.0000e-06
  Last Orbital Gradient      ...    1.1764e-05  Tolerance :   5.0000e-05
  Last Orbital Rotation      ...    2.5170e-05  Tolerance :   5.0000e-05

             **** THE GBW FILE WAS UPDATED (/home/mattyjones/Software/morphct/tests/output_EZ/donor_polymer/chromophores/input_orca/pair/00001-00009.gbw) ****
             **** DENSITY FILE WAS UPDATED (/home/mattyjones/Software/morphct/tests/output_EZ/donor_polymer/chromophores/input_orca/pair/00001-00009.scfp.tmp) ****
             **** ENERGY FILE WAS UPDATED (/home/mattyjones/Software/morphct/tests/output_EZ/donor_polymer/chromophores/input_orca/pair/00001-00009.en.tmp) ****
----------------
ORBITAL ENERGIES
----------------

  NO   OCC          E(Eh)            E(eV) 
   0   2.0000      -1.561151       -42.4811 
   1   2.0000      -1.554794       -42.3081 
   2   2.0000      -1.402723       -38.1700 
   3   2.0000      -1.371187       -37.3119 
   4   2.0000      -1.297933       -35.3185 
   5   2.0000      -1.273506       -34.6538 
   6   2.0000      -1.197446       -32.5842 
   7   2.0000      -1.179798       -32.1039 
   8   2.0000      -1.121318       -30.5126 
   9   2.0000      -1.106791       -30.1173 
  10   2.0000      -1.038888       -28.2696 
  11   2.0000      -1.030522       -28.0419 
  12   2.0000      -0.980330       -26.6761 
  13   2.0000      -0.948758       -25.8170 
  14   2.0000      -0.915230       -24.9047 
  15   2.0000      -0.901006       -24.5176 
  16   2.0000      -0.864609       -23.5272 
  17   2.0000      -0.840588       -22.8736 
  18   2.0000      -0.838575       -22.8188 
  19   2.0000      -0.826336       -22.4858 
  20   2.0000      -0.773198       -21.0398 
  21   2.0000      -0.768148       -20.9024 
  22   2.0000      -0.734670       -19.9914 
  23   2.0000      -0.719278       -19.5725 
  24   2.0000      -0.688693       -18.7403 
  25   2.0000      -0.686750       -18.6874 
  26   2.0000      -0.682836       -18.5809 
  27   2.0000      -0.660680       -17.9780 
  28   2.0000      -0.643994       -17.5240 
  29   2.0000      -0.642679       -17.4882 
  30   2.0000      -0.624571       -16.9954 
  31   2.0000      -0.618536       -16.8312 
  32   2.0000      -0.591517       -16.0960 
  33   2.0000      -0.586785       -15.9672 
  34   2.0000      -0.576403       -15.6847 
  35   2.0000      -0.573248       -15.5989 
  36   2.0000      -0.571024       -15.5383 
  37   2.0000      -0.567659       -15.4468 
  38   2.0000      -0.555529       -15.1167 
  39   2.0000      -0.553694       -15.0668 
  40   2.0000      -0.541805       -14.7433 
  41   2.0000      -0.536161       -14.5897 
  42   2.0000      -0.515367       -14.0239 
  43   2.0000      -0.509694       -13.8695 
  44   2.0000      -0.504146       -13.7185 
  45   2.0000      -0.503962       -13.7135 
  46   2.0000      -0.495579       -13.4854 
  47   2.0000      -0.495004       -13.4697 
  48   2.0000      -0.488637       -13.2965 
  49   2.0000      -0.488614       -13.2959 
  50   2.0000      -0.483004       -13.1432 
  51   2.0000      -0.472454       -12.8561 
  52   2.0000      -0.469818       -12.7844 
  53   2.0000      -0.459626       -12.5071 
  54   2.0000      -0.449520       -12.2321 
  55   2.0000      -0.445239       -12.1156 
  56   2.0000      -0.435004       -11.8371 
  57   2.0000      -0.434007       -11.8099 
  58   2.0000      -0.358930        -9.7670 
  59   2.0000      -0.354608        -9.6494 
  60   2.0000      -0.305859        -8.3229 
  61   2.0000      -0.305060        -8.3011 
  62   0.0000       0.005207         0.1417 
  63   0.0000       0.007987         0.2173 
  64   0.0000       0.038176         1.0388 
  65   0.0000       0.069287         1.8854 
  66   0.0000       0.071365         1.9419 
  67   0.0000       0.073851         2.0096 
  68   0.0000       0.075765         2.0617 
  69   0.0000       0.090826         2.4715 
  70   0.0000       0.097451         2.6518 
  71   0.0000       0.105225         2.8633 
  72   0.0000       0.106311         2.8929 
  73   0.0000       0.108244         2.9455 
  74   0.0000       0.122595         3.3360 
  75   0.0000       0.122680         3.3383 
  76   0.0000       0.141314         3.8453 
  77   0.0000       0.143877         3.9151 
  78   0.0000       0.155219         4.2237 
  79   0.0000       0.158803         4.3212 
  80   0.0000       0.165737         4.5099 
  81   0.0000       0.166295         4.5251 
  82   0.0000       0.173468         4.7203 
  83   0.0000       0.173555         4.7227 
  84   0.0000       0.201638         5.4868 
  85   0.0000       0.203704         5.5431 
  86   0.0000       0.226717         6.1693 
  87   0.0000       0.233112         6.3433 
  88   0.0000       0.234841         6.3904 
  89   0.0000       0.236227         6.4281 
  90   0.0000       0.237118         6.4523 
  91   0.0000       0.237263         6.4562 
  92   0.0000       0.237845         6.4721 
  93   0.0000       0.238683         6.4949 
  94   0.0000       0.239139         6.5073 
  95   0.0000       0.239810         6.5256 
  96   0.0000       0.241257         6.5649 
  97   0.0000       0.242440         6.5971 
  98   0.0000       0.243001         6.6124 
  99   0.0000       0.243421         6.6238 
 100   0.0000       0.243704         6.6315 
 101   0.0000       0.245875         6.6906 
 102   0.0000       0.248465         6.7611 
 103   0.0000       0.264380         7.1941 
 104   0.0000       0.265206         7.2166 
 105   0.0000       0.267241         7.2720 
 106   0.0000       0.272120         7.4048 
 107   0.0000       0.283695         7.7197 
 108   0.0000       0.297672         8.1001 
 109   0.0000       0.305409         8.3106 
 110   0.0000       0.308277         8.3886 
 111   0.0000       0.310435         8.4474 
 112   0.0000       0.339244         9.2313 
 113   0.0000       0.345346         9.3973 
 114   0.0000       0.352688         9.5971 
 115   0.0000       0.361914         9.8482 
 116   0.0000       0.400544        10.8993 
 117   0.0000       0.419775        11.4226 
 118   0.0000       0.425239        11.5713 
 119   0.0000       0.437467        11.9041 
-------
TIMINGS
-------

Total SCF time: 0 days 0 hours 0 min 0 sec 

Total time                  ....       0.148 sec
Sum of individual times     ....       0.087 sec  ( 58.8%)

Fock matrix formation       ....       0.038 sec  ( 25.4%)
Diagonalization             ....       0.024 sec  ( 16.3%)
Density matrix formation    ....       0.003 sec  (  2.0%)
Population analysis         ....       0.000 sec  (  0.0%)
Initial guess               ....       0.003 sec  (  2.1%)
Orbital Transformation      ....       0.000 sec  (  0.0%)
Orbital Orthonormalization  ....       0.000 sec  (  0.0%)
DIIS solution               ....       0.005 sec  (  3.1%)
SOSCF solution              ....       0.015 sec  (  9.9%)

-------------------------   --------------------
FINAL SINGLE POINT ENERGY       -22.855719662244
-------------------------   --------------------


                            ***************************************
                            *     ORCA property calculations      *
                            ***************************************

                                    ---------------------
                                    Active property flags
                                    ---------------------
   (+) Dipole Moment


------------------------------------------------------------------------------
                       ORCA ELECTRIC PROPERTIES CALCULATION
------------------------------------------------------------------------------

Dipole Moment Calculation                       ... on
Quadrupole Moment Calculation                   ... off
Polarizability Calculation                      ... off
GBWName                                         ... /home/mattyjones/Software/morphct/tests/output_EZ/donor_polymer/chromophores/input_orca/pair/00001-00009.gbw
Electron density file                           ... /home/mattyjones/Software/morphct/tests/output_EZ/donor_polymer/chromophores/input_orca/pair/00001-00009.scfp.tmp
The origin for moment calculation is the CENTER OF MASS  = (-2.370845, -1.320713 -0.246459)

-------------
DIPOLE MOMENT
-------------
                                X             Y             Z
Electronic contribution:   -260.94980    -170.75934     -28.51743
Nuclear contribution   :    138.20792      80.03191      12.45633
                        -----------------------------------------
Total Dipole Moment    :   -122.74188     -90.72744     -16.06111
                        -----------------------------------------
Magnitude (a.u.)       :    153.47637
Magnitude (Debye)      :    390.10592


Timings for individual modules:

Sum of individual times         ...        0.178 sec (=   0.003 min)
STO integral calculation        ...        0.020 sec (=   0.000 min)  11.0 %
SCF iterations                  ...        0.159 sec (=   0.003 min)  89.0 %
                             ****ORCA TERMINATED NORMALLY****
TOTAL RUN TIME: 0 days 0 hours 0 minutes 0 seconds 502 msec

