
                                 *****************
                                 * O   R   C   A *
                                 *****************

           --- An Ab Initio, DFT and Semiempirical electronic structure package ---

                  #######################################################
                  #                        -***-                        #
                  #  Department of molecular theory and spectroscopy    #
                  #              Directorship: Frank Neese              #
                  # Max Planck Institute for Chemical Energy Conversion #
                  #                  D-45470 Muelheim/Ruhr              #
                  #                       Germany                       #
                  #                                                     #
                  #                  All rights reserved                #
                  #                        -***-                        #
                  #######################################################


                         Program Version 3.0.3 - RELEASE   -


 With contributions from (in alphabetic order):
   Ute Becker             : Parallelization
   Dmytro Bykov           : SCF Hessian
   Dmitry Ganyushin       : Spin-Orbit,Spin-Spin,Magnetic field MRCI
   Andreas Hansen         : Spin unrestricted coupled pair/coupled cluster methods
   Dimitrios Liakos       : Extrapolation schemes; parallel MDCI
   Robert Izsak           : Overlap fitted RIJCOSX, COSX-SCS-MP3
   Christian Kollmar      : KDIIS, OOCD, Brueckner-CCSD(T), CCSD density
   Simone Kossmann        : Meta GGA functionals, TD-DFT gradient, OOMP2, MP2 Hessian
   Taras Petrenko         : DFT Hessian,TD-DFT gradient, ASA and ECA modules, normal mode analysis, Resonance Raman, ABS, FL, XAS/XES, NRVS
   Christoph Reimann      : Effective Core Potentials
   Michael Roemelt        : Restricted open shell CIS
   Christoph Riplinger    : Improved optimizer, TS searches, QM/MM, DLPNO-CCSD
   Barbara Sandhoefer     : DKH picture change effects
   Igor Schapiro          : Molecular dynamics
   Kantharuban Sivalingam : CASSCF convergence, NEVPT2
   Boris Wezisla          : Elementary symmetry handling
   Frank Wennmohs         : Technical directorship


 We gratefully acknowledge several colleagues who have allowed us to
 interface, adapt or use parts of their codes:
   Stefan Grimme, W. Hujo, H. Kruse, T. Risthaus : VdW corrections, initial TS optimization,
                                                   DFT functionals, gCP
   Ed Valeev                                     : LibInt (2-el integral package), F12 methods
   Garnet Chan, S. Sharma, R. Olivares           : DMRG
   Ulf Ekstrom                                   : XCFun DFT Library
   Mihaly Kallay                                 : mrcc  (arbitrary order and MRCC methods)
   Andreas Klamt, Michael Diedenhofen            : otool_cosmo (COSMO solvation model)
   Frank Weinhold                                : gennbo (NPA and NBO analysis)
   Christopher J. Cramer and Donald G. Truhlar   : smd solvation model


 Your calculation uses the libint2 library for the computation of 2-el integrals
 For citations please refer to: http://libint.valeyev.net

 This ORCA versions uses:
   CBLAS   interface :  Fast vector & matrix operations
   LAPACKE interface :  Fast linear algebra routines
   SCALAPACK package :  Parallel linear algebra routines


leaving
================================================================================
                                        WARNINGS
                       Please study these warnings very carefully!
================================================================================
Now building the actual basis set

WARNING: Direct SCF is incompatible with Method<>HF and Method<>DFT
  ===> : conventional SCF is chosen

WARNING: The NDO methods need Guess=HUECKEL or Guess=HCORE or Guess=MOREAD
  ===> : Guess is set to Hueckel

WARNING: The NDO methods need %rel::SOCType==1
  ===> : %rel::SOCType is set to 1

WARNING: The NDO methods cannot have frozencore=1
  ===> : %method FrozenCore=0 end


INFO   : the flag for use of LIBINT has been found!

================================================================================
                                       INPUT FILE
================================================================================
NAME = /Users/mattyjones/GoogleDrive/Boise/Code/MorphCT/tests/output_EZ/donor_polymer/chromophores/input_orca/pair/00008-00022.inp
|  1> # ================================================================
|  2> # Orca input file made by Matty Jones
|  3> # ================================================================
|  4> ! ZINDO/S 
|  5> ! NOPOP
|  6> ! NOMOPRINT
|  7> * xyz 0   1
|  8>  C  -19.78793  -1.31143  -0.85610
|  9>  C  -20.51772  -2.44320  -0.48949
| 10>  C  -19.88185  -3.25148  0.50378
| 11>  C  -18.64369  -2.75547  0.92360
| 12>  S  -18.40423  -1.36253  0.05596
| 13>  H  -21.44406  -2.80919  -1.05099
| 14>  C  -20.53490  -4.61333  1.09149
| 15>  C  -21.52328  -5.71267  0.21369
| 16>  C  -23.18893  -5.43719  0.50283
| 17>  H  -23.36214  -5.78020  1.59752
| 18>  H  -23.35381  -4.29374  0.44905
| 19>  H  -21.26062  -6.79120  0.49766
| 20>  H  -21.33727  -5.53626  -0.90742
| 21>  H  -21.16091  -4.33501  2.03097
| 22>  H  -19.65586  -5.30122  1.44885
| 23>  C  -24.30638  -6.18836  -0.42693
| 24>  C  -25.00691  -7.72849  -0.20359
| 25>  C  -24.69627  -8.67944  1.14605
| 26>  H  -25.10072  -8.14910  2.09115
| 27>  H  -23.55830  -8.85646  1.24719
| 28>  H  -25.23601  -9.69758  1.01745
| 29>  H  -24.67398  -8.35425  -1.11922
| 30>  H  -26.15188  -7.58235  -0.25403
| 31>  H  -25.23071  -5.47659  -0.43404
| 32>  H  -23.87874  -6.21214  -1.50568
| 33>  C  19.71176  1.74264  -1.86729
| 34>  C  20.59758  2.72315  -1.41805
| 35>  C  20.01134  3.67580  -0.52752
| 36>  C  18.65579  3.44638  -0.27230
| 37>  S  18.25948  2.09592  -1.14954
| 38>  H  21.69861  2.76349  -1.70369
| 39>  C  20.85821  4.91355  0.08406
| 40>  C  21.78895  5.82695  -0.97853
| 41>  C  22.47134  7.09587  -0.09568
| 42>  H  22.52494  6.79428  1.01669
| 43>  H  21.72467  7.98265  -0.17977
| 44>  H  22.61072  5.17300  -1.44451
| 45>  H  21.10576  6.25582  -1.79892
| 46>  H  20.27851  5.71537  0.67093
| 47>  H  21.61084  4.44875  0.85035
| 48>  C  23.91234  7.58203  -0.65505
| 49>  C  25.22769  6.82374  0.09472
| 50>  C  24.86975  5.79134  1.37884
| 51>  H  24.38911  6.39746  2.23907
| 52>  H  25.85044  5.30409  1.75623
| 53>  H  24.14280  4.96566  1.02281
| 54>  H  25.77640  6.20245  -0.70647
| 55>  H  25.92957  7.64807  0.49048
| 56>  H  24.02268  8.72169  -0.48778
| 57>  H  23.98422  7.36660  -1.78984
| 58>  H  -20.06074  -0.57458  -1.56759
| 59>  H  -17.99415  -3.18073  1.64530
| 60>  H  19.92292  0.94111  -2.52801
| 61>  H  18.01556  4.01631  0.35131
| 62> *
| 63> 
| 64>                          ****END OF INPUT****
================================================================================

                       ****************************
                       * Single Point Calculation *
                       ****************************

---------------------------------
CARTESIAN COORDINATES (ANGSTROEM)
---------------------------------
  C    -19.787930   -1.311430   -0.856100
  C    -20.517720   -2.443200   -0.489490
  C    -19.881850   -3.251480    0.503780
  C    -18.643690   -2.755470    0.923600
  S    -18.404230   -1.362530    0.055960
  H    -21.444060   -2.809190   -1.050990
  C    -20.534900   -4.613330    1.091490
  C    -21.523280   -5.712670    0.213690
  C    -23.188930   -5.437190    0.502830
  H    -23.362140   -5.780200    1.597520
  H    -23.353810   -4.293740    0.449050
  H    -21.260620   -6.791200    0.497660
  H    -21.337270   -5.536260   -0.907420
  H    -21.160910   -4.335010    2.030970
  H    -19.655860   -5.301220    1.448850
  C    -24.306380   -6.188360   -0.426930
  C    -25.006910   -7.728490   -0.203590
  C    -24.696270   -8.679440    1.146050
  H    -25.100720   -8.149100    2.091150
  H    -23.558300   -8.856460    1.247190
  H    -25.236010   -9.697580    1.017450
  H    -24.673980   -8.354250   -1.119220
  H    -26.151880   -7.582350   -0.254030
  H    -25.230710   -5.476590   -0.434040
  H    -23.878740   -6.212140   -1.505680
  C     19.711760    1.742640   -1.867290
  C     20.597580    2.723150   -1.418050
  C     20.011340    3.675800   -0.527520
  C     18.655790    3.446380   -0.272300
  S     18.259480    2.095920   -1.149540
  H     21.698610    2.763490   -1.703690
  C     20.858210    4.913550    0.084060
  C     21.788950    5.826950   -0.978530
  C     22.471340    7.095870   -0.095680
  H     22.524940    6.794280    1.016690
  H     21.724670    7.982650   -0.179770
  H     22.610720    5.173000   -1.444510
  H     21.105760    6.255820   -1.798920
  H     20.278510    5.715370    0.670930
  H     21.610840    4.448750    0.850350
  C     23.912340    7.582030   -0.655050
  C     25.227690    6.823740    0.094720
  C     24.869750    5.791340    1.378840
  H     24.389110    6.397460    2.239070
  H     25.850440    5.304090    1.756230
  H     24.142800    4.965660    1.022810
  H     25.776400    6.202450   -0.706470
  H     25.929570    7.648070    0.490480
  H     24.022680    8.721690   -0.487780
  H     23.984220    7.366600   -1.789840
  H    -20.060740   -0.574580   -1.567590
  H    -17.994150   -3.180730    1.645300
  H     19.922920    0.941110   -2.528010
  H     18.015560    4.016310    0.351310

----------------------------
CARTESIAN COORDINATES (A.U.)
----------------------------
  NO LB      ZA    FRAG    MASS        X           Y           Z
   0 C     4.0000    0    12.011        -37.393768457204352         -2.478243543808347         -1.617794543249983
   1 C     4.0000    0    12.011        -38.772871692478745         -4.616978890396402         -0.925002045293113
   2 C     4.0000    0    12.011        -37.571251535702238         -6.144406729922271          0.952006231746848
   3 C     4.0000    0    12.011        -35.231468225726296         -5.207083670235991          1.745351057289668
   4 S     6.0000    0    32.060        -34.778954405697512         -2.574808549251723          0.105749074454233
   5 H     1.0000    0     1.008        -40.523400599375357         -5.308599758150241         -1.986083269489896
   6 C     4.0000    0    12.011        -38.805337187459514         -8.717930265402929          2.062617177913707
   7 C     4.0000    0    12.011        -40.673104703704595        -10.795381793467916          0.403815577557632
   8 C     4.0000    0    12.011        -43.820727038670526        -10.274800038095291          0.950210991919623
   9 H     1.0000    0     1.008        -44.148046502327027        -10.922994999291619          3.018875293461878
  10 H     1.0000    0     1.008        -44.132305083631465         -8.113992690263034          0.848581520437338
  11 H     1.0000    0     1.008        -40.176749237368838        -12.833508120686004          0.940441107807250
  12 H     1.0000    0     1.008        -40.321596745533903        -10.462015206182869         -1.714775288442822
  13 H     1.0000    0     1.008        -39.988324644555554         -8.191981687809964          3.837977086210044
  14 H     1.0000    0     1.008        -37.144192326697372        -10.017853975666018          2.737929709131806
  15 C     4.0000    0    12.011        -45.932401507020835        -11.694305618112917         -0.806780778355000
  16 C     4.0000    0    12.011        -47.256211355616692        -14.604729528749054         -0.384729343605028
  17 C     4.0000    0    12.011        -46.669186829375384        -16.401764595801467          2.165720635780450
  18 H     1.0000    0     1.008        -47.433486564239836        -15.399567237937672          3.951700804949425
  19 H     1.0000    0     1.008        -44.518735180757020        -16.736283916028210          2.356847536965246
  20 H     1.0000    0     1.008        -47.689147612898047        -18.325770361792053          1.922701854958177
  21 H     1.0000    0     1.008        -46.627064833850284        -15.787244554311618         -2.115019283607344
  22 H     1.0000    0     1.008        -49.419891087172502        -14.328564951537802         -0.480047129800016
  23 H     1.0000    0     1.008        -47.679132064388263        -10.349255247771787         -0.820216731167180
  24 H     1.0000    0     1.008        -45.124279023110752        -11.739243305577563         -2.845322845322550
  25 C     4.0000    0    12.011         37.249828017583575          3.293112350016530         -3.528666712609814
  26 C     4.0000    0    12.011         38.923785221533699          5.146007721587656         -2.679726144207031
  27 C     4.0000    0    12.011         37.815952172783703          6.946255323067737         -0.996868330166139
  28 C     4.0000    0    12.011         35.254333911946745          6.512714353423523         -0.514572426266757
  29 S     6.0000    0    32.060         34.505416547812416          3.960714798608230         -2.172315779987835
  30 H     1.0000    0     1.008         41.004430386765009          5.222239273830040         -3.219507517100297
  31 C     4.0000    0    12.011         39.416304543817589          9.285263845328766          0.158850378817420
  32 C     4.0000    0    12.011         41.175148245703454         11.011339696052438         -1.849153713825962
  33 C     4.0000    0    12.011         42.464678462229983         13.409250981907791         -0.180808996493585
  34 H     1.0000    0     1.008         42.565967783008162         12.839328477178482          1.921265663096398
  35 H     1.0000    0     1.008         41.053676649814996         15.085022322946479         -0.339716067095023
  36 H     1.0000    0     1.008         42.728068490775925          9.775553290774635         -2.729728297710587
  37 H     1.0000    0     1.008         39.884106248269795         11.821786543107244         -3.399466136833618
  38 H     1.0000    0     1.008         38.320830303983442         10.800484054029504          1.267873955031785
  39 H     1.0000    0     1.008         40.838569123990744          8.406919138282170          1.606928617979936
  40 C     4.0000    0    12.011         45.187773821210506         14.327960239174947         -1.237865104025116
  41 C     4.0000    0    12.011         47.673425091463820         12.894999809083801          0.178994859405021
  42 C     4.0000    0    12.011         46.997016519088049         10.944046548423502          2.605629982495979
  43 H     1.0000    0     1.008         46.088738550080137         12.089447352715849          4.231229094679057
  44 H     1.0000    0     1.008         48.850252041363277         10.023277489670372          3.318793728176520
  45 H     1.0000    0     1.008         45.623280106033995          9.383737474167402          1.932830787035995
  46 H     1.0000    0     1.008         48.710336718407753         11.720931859339867         -1.335034821831347
  47 H     1.0000    0     1.008         48.999786070340463         14.452757753059107          0.926872874165696
  48 H     1.0000    0     1.008         45.396286202827376         16.481605524959644         -0.921770613604108
  49 H     1.0000    0     1.008         45.323607335716765         13.920856538144292         -3.382307423537613
  50 H     1.0000    0     1.008        -37.909304643799409         -1.085798842028473         -2.962315790273615
  51 H     1.0000    0     1.008        -34.004015512699091         -6.010708605947343          3.109166408140635
  52 H     1.0000    0     1.008         37.648862588022382          1.778440161894629         -4.777246563814264
  53 H     1.0000    0     1.008         34.044474549226344          7.589725968929262          0.663879688107875

--------------------------------
INTERNAL COORDINATES (ANGSTROEM)
--------------------------------
 C      0   0   0   0.000000     0.000     0.000
 C      1   0   0   1.395672     0.000     0.000
 C      2   1   0   1.429767   114.102     0.000
 C      3   2   1   1.398326   113.693     0.000
 S      1   2   3   1.658038   105.479     0.000
 H      2   1   3   1.143388   123.656   190.606
 C      3   2   1   1.620652   123.214   179.870
 C      7   3   2   1.719295   125.719    33.155
 C      8   7   3   1.712858   111.716   262.235
 H      9   8   7   1.160174   104.887   289.650
 H      9   8   7   1.156527   106.846    44.544
 H      8   7   3   1.145799   110.094   140.448
 H      8   7   3   1.150047   107.857    19.905
 H      7   3   2   1.162744   107.988   268.747
 H      7   3   2   1.172011   107.551   153.202
 C      9   8   7   1.636278   119.627   169.223
 C     16   9   8   1.706641   128.334    87.436
 C     17  16   9   1.679980   122.687     4.795
 H     18  17  16   1.156743   109.403    64.423
 H     18  17  16   1.156089   109.814   303.539
 H     18  17  16   1.159511   108.776   183.748
 H     17  16   9   1.157928   105.437   243.621
 H     17  16   9   1.155360   106.674   128.284
 H     16   9   8   1.166642   105.335   208.486
 H     16   9   8   1.160665   106.613   322.383
 C      5   1   2  38.290595   143.188   131.920
 C     26   5   1   1.395670   132.268   109.306
 C     27  26   5   1.429777   114.101    12.275
 C     28  27  26   1.398316   113.694     0.000
 S     26   5   1   1.658038    28.792   134.483
 H     27  26   5   1.138194   123.924   190.860
 C     28  27  26   1.619643   122.005   181.322
 C     32  28  27   1.682163   117.758    47.668
 C     33  32  28   1.689745   107.528   176.291
 H     34  33  32   1.153775   109.038    24.000
 H     34  33  32   1.162311   106.004   268.656
 H     33  32  28   1.148953   110.052   296.724
 H     33  32  28   1.150529   108.922    57.814
 H     32  28  27   1.150384   117.504   171.560
 H     32  28  27   1.170338   106.259   289.285
 C     34  33  32   1.620410   113.833   149.468
 C     41  34  33   1.693312   113.802   266.871
 C     42  41  34   1.686101   116.520   355.033
 H     43  42  41   1.156889   109.493   296.556
 H     43  42  41   1.158270   109.025   177.069
 H     43  42  41   1.156270   109.646    57.317
 H     42  41  34   1.152818   107.659   115.772
 H     42  41  34   1.152728   107.744   233.813
 H     41  34  33   1.157143   109.292   146.524
 H     41  34  33   1.157292   109.747    27.515
 H      1   2   3   1.059996   127.260   180.001
 H      4   3   2   1.060000   127.206   180.000
 H     26   5   1   1.059995    99.688   299.190
 H     29  28  27   1.060002   127.206   180.000

---------------------------
INTERNAL COORDINATES (A.U.)
---------------------------
 C      0   0   0   0.000000     0.000     0.000
 C      1   0   0   2.637437     0.000     0.000
 C      2   1   0   2.701867   114.102     0.000
 C      3   2   1   2.642453   113.693     0.000
 S      1   2   3   3.133238   105.479     0.000
 H      2   1   3   2.160691   123.656   190.606
 C      3   2   1   3.062588   123.214   179.870
 C      7   3   2   3.248997   125.719    33.155
 C      8   7   3   3.236832   111.716   262.235
 H      9   8   7   2.192411   104.887   289.650
 H      9   8   7   2.185520   106.846    44.544
 H      8   7   3   2.165247   110.094   140.448
 H      8   7   3   2.173274   107.857    19.905
 H      7   3   2   2.197267   107.988   268.747
 H      7   3   2   2.214780   107.551   153.202
 C      9   8   7   3.092117   119.627   169.223
 C     16   9   8   3.225084   128.334    87.436
 C     17  16   9   3.174701   122.687     4.795
 H     18  17  16   2.185927   109.403    64.423
 H     18  17  16   2.184691   109.814   303.539
 H     18  17  16   2.191159   108.776   183.748
 H     17  16   9   2.188166   105.437   243.621
 H     17  16   9   2.183315   106.674   128.284
 H     16   9   8   2.204633   105.335   208.486
 H     16   9   8   2.193339   106.613   322.383
 C      5   1   2  72.358738   143.188   131.920
 C     26   5   1   2.637433   132.268   109.306
 C     27  26   5   2.701887   114.101    12.275
 C     28  27  26   2.642434   113.694     0.000
 S     26   5   1   3.133237    28.792   134.483
 H     27  26   5   2.150874   123.924   190.860
 C     28  27  26   3.060682   122.005   181.322
 C     32  28  27   3.178828   117.758    47.668
 C     33  32  28   3.193155   107.528   176.291
 H     34  33  32   2.180319   109.038    24.000
 H     34  33  32   2.196449   106.004   268.656
 H     33  32  28   2.171207   110.052   296.724
 H     33  32  28   2.174185   108.922    57.814
 H     32  28  27   2.173911   117.504   171.560
 H     32  28  27   2.211619   106.259   289.285
 C     34  33  32   3.062130   113.833   149.468
 C     41  34  33   3.199895   113.802   266.871
 C     42  41  34   3.186268   116.520   355.033
 H     43  42  41   2.186203   109.493   296.556
 H     43  42  41   2.188812   109.025   177.069
 H     43  42  41   2.185034   109.646    57.317
 H     42  41  34   2.178510   107.659   115.772
 H     42  41  34   2.178340   107.744   233.813
 H     41  34  33   2.186683   109.292   146.524
 H     41  34  33   2.186965   109.747    27.515
 H      1   2   3   2.003102   127.260   180.001
 H      4   3   2   2.003109   127.206   180.000
 H     26   5   1   2.003101    99.688   299.190
 H     29  28  27   2.003113   127.206   180.000

----------------------------
SLATER BASIS SET DIM= 120
----------------------------
  0 C     2 shells
 l=0 nsto= 1
    2       1.625000000000        1.000000000000
 l=1 nsto= 1
    2       1.625000000000        1.000000000000
  1 C     2 shells
 l=0 nsto= 1
    2       1.625000000000        1.000000000000
 l=1 nsto= 1
    2       1.625000000000        1.000000000000
  2 C     2 shells
 l=0 nsto= 1
    2       1.625000000000        1.000000000000
 l=1 nsto= 1
    2       1.625000000000        1.000000000000
  3 C     2 shells
 l=0 nsto= 1
    2       1.625000000000        1.000000000000
 l=1 nsto= 1
    2       1.625000000000        1.000000000000
  4 S     2 shells
 l=0 nsto= 1
    3       1.925000000000        1.000000000000
 l=1 nsto= 1
    3       1.925000000000        1.000000000000
  5 H     1 shells
 l=0 nsto= 1
    1       1.200000000000        1.000000000000
  6 C     2 shells
 l=0 nsto= 1
    2       1.625000000000        1.000000000000
 l=1 nsto= 1
    2       1.625000000000        1.000000000000
  7 C     2 shells
 l=0 nsto= 1
    2       1.625000000000        1.000000000000
 l=1 nsto= 1
    2       1.625000000000        1.000000000000
  8 C     2 shells
 l=0 nsto= 1
    2       1.625000000000        1.000000000000
 l=1 nsto= 1
    2       1.625000000000        1.000000000000
  9 H     1 shells
 l=0 nsto= 1
    1       1.200000000000        1.000000000000
 10 H     1 shells
 l=0 nsto= 1
    1       1.200000000000        1.000000000000
 11 H     1 shells
 l=0 nsto= 1
    1       1.200000000000        1.000000000000
 12 H     1 shells
 l=0 nsto= 1
    1       1.200000000000        1.000000000000
 13 H     1 shells
 l=0 nsto= 1
    1       1.200000000000        1.000000000000
 14 H     1 shells
 l=0 nsto= 1
    1       1.200000000000        1.000000000000
 15 C     2 shells
 l=0 nsto= 1
    2       1.625000000000        1.000000000000
 l=1 nsto= 1
    2       1.625000000000        1.000000000000
 16 C     2 shells
 l=0 nsto= 1
    2       1.625000000000        1.000000000000
 l=1 nsto= 1
    2       1.625000000000        1.000000000000
 17 C     2 shells
 l=0 nsto= 1
    2       1.625000000000        1.000000000000
 l=1 nsto= 1
    2       1.625000000000        1.000000000000
 18 H     1 shells
 l=0 nsto= 1
    1       1.200000000000        1.000000000000
 19 H     1 shells
 l=0 nsto= 1
    1       1.200000000000        1.000000000000
 20 H     1 shells
 l=0 nsto= 1
    1       1.200000000000        1.000000000000
 21 H     1 shells
 l=0 nsto= 1
    1       1.200000000000        1.000000000000
 22 H     1 shells
 l=0 nsto= 1
    1       1.200000000000        1.000000000000
 23 H     1 shells
 l=0 nsto= 1
    1       1.200000000000        1.000000000000
 24 H     1 shells
 l=0 nsto= 1
    1       1.200000000000        1.000000000000
 25 C     2 shells
 l=0 nsto= 1
    2       1.625000000000        1.000000000000
 l=1 nsto= 1
    2       1.625000000000        1.000000000000
 26 C     2 shells
 l=0 nsto= 1
    2       1.625000000000        1.000000000000
 l=1 nsto= 1
    2       1.625000000000        1.000000000000
 27 C     2 shells
 l=0 nsto= 1
    2       1.625000000000        1.000000000000
 l=1 nsto= 1
    2       1.625000000000        1.000000000000
 28 C     2 shells
 l=0 nsto= 1
    2       1.625000000000        1.000000000000
 l=1 nsto= 1
    2       1.625000000000        1.000000000000
 29 S     2 shells
 l=0 nsto= 1
    3       1.925000000000        1.000000000000
 l=1 nsto= 1
    3       1.925000000000        1.000000000000
 30 H     1 shells
 l=0 nsto= 1
    1       1.200000000000        1.000000000000
 31 C     2 shells
 l=0 nsto= 1
    2       1.625000000000        1.000000000000
 l=1 nsto= 1
    2       1.625000000000        1.000000000000
 32 C     2 shells
 l=0 nsto= 1
    2       1.625000000000        1.000000000000
 l=1 nsto= 1
    2       1.625000000000        1.000000000000
 33 C     2 shells
 l=0 nsto= 1
    2       1.625000000000        1.000000000000
 l=1 nsto= 1
    2       1.625000000000        1.000000000000
 34 H     1 shells
 l=0 nsto= 1
    1       1.200000000000        1.000000000000
 35 H     1 shells
 l=0 nsto= 1
    1       1.200000000000        1.000000000000
 36 H     1 shells
 l=0 nsto= 1
    1       1.200000000000        1.000000000000
 37 H     1 shells
 l=0 nsto= 1
    1       1.200000000000        1.000000000000
 38 H     1 shells
 l=0 nsto= 1
    1       1.200000000000        1.000000000000
 39 H     1 shells
 l=0 nsto= 1
    1       1.200000000000        1.000000000000
 40 C     2 shells
 l=0 nsto= 1
    2       1.625000000000        1.000000000000
 l=1 nsto= 1
    2       1.625000000000        1.000000000000
 41 C     2 shells
 l=0 nsto= 1
    2       1.625000000000        1.000000000000
 l=1 nsto= 1
    2       1.625000000000        1.000000000000
 42 C     2 shells
 l=0 nsto= 1
    2       1.625000000000        1.000000000000
 l=1 nsto= 1
    2       1.625000000000        1.000000000000
 43 H     1 shells
 l=0 nsto= 1
    1       1.200000000000        1.000000000000
 44 H     1 shells
 l=0 nsto= 1
    1       1.200000000000        1.000000000000
 45 H     1 shells
 l=0 nsto= 1
    1       1.200000000000        1.000000000000
 46 H     1 shells
 l=0 nsto= 1
    1       1.200000000000        1.000000000000
 47 H     1 shells
 l=0 nsto= 1
    1       1.200000000000        1.000000000000
 48 H     1 shells
 l=0 nsto= 1
    1       1.200000000000        1.000000000000
 49 H     1 shells
 l=0 nsto= 1
    1       1.200000000000        1.000000000000
 50 H     1 shells
 l=0 nsto= 1
    1       1.200000000000        1.000000000000
 51 H     1 shells
 l=0 nsto= 1
    1       1.200000000000        1.000000000000
 52 H     1 shells
 l=0 nsto= 1
    1       1.200000000000        1.000000000000
 53 H     1 shells
 l=0 nsto= 1
    1       1.200000000000        1.000000000000
------------------------------------------------------------------------------
                           ORCA NDO INTEGRAL CALCULATION
------------------------------------------------------------------------------

--------------
NDO PARAMETERS
--------------

Gamma integral treatment              ... Mataga-Nishimoto
Nuclear repulsuion treatment          ... Direct (ZA*ZB/RAB)
Interaction factors:
s-s (sigma) =    1.0000
s-p (sigma) =    1.0000
s-d (sigma) =    1.0000
p-p (sigma) =    1.2670  p-p(pi) =    0.5850
p-d (sigma) =    1.0000  p-d(pi) =    1.0000
d-d (sigma) =    1.0000  d-d(pi) =    1.0000 d-d (delta) =    1.0000

fGamma parameter for Mataga-Nishimoto gamma integrals:    1.2000

--------------------------
Parameters for Element H :
--------------------------
 One-electron parameters (in eV)
  U(s)  =   -13.060000 Beta(s) =    12.000000 Neff(s) =     1.000000
 One-center electron repulsion parameters (in eV)
  G(s,s)=    12.850000
--------------------------
Parameters for Element C :
--------------------------
 One-electron parameters (in eV)
  U(s)  =   -50.870766 Beta(s) =    17.000000 Neff(s) =     2.000000
  U(p)  =   -41.599980 Beta(p) =    17.000000 Neff(p) =     2.000000 
 One-center electron repulsion parameters (in eV)
  G(s,s)=    11.110000
  G(s,p)=    11.110000 G(p,p)  =    11.110000
 Slater-Condon parameters (in eV)
 F2(p,p)=     4.5098 G1(s,p)=    6.8977
--------------------------
Parameters for Element S :
--------------------------
 One-electron parameters (in eV)
  U(s)  =   -69.509597 Beta(s) =    15.000000 Neff(s) =     2.000000
  U(p)  =   -60.725746 Beta(p) =    15.000000 Neff(p) =     4.000000 
 One-center electron repulsion parameters (in eV)
  G(s,s)=    10.090000
  G(s,p)=    10.090000 G(p,p)  =    10.090000
 Slater-Condon parameters (in eV)
 F2(p,p)=     4.5377 G1(s,p)=    3.0756

 Number of atoms                    ....   54
 Number of basis functions          ....  120

 Overlap integrals                  .... done
 One electron matrix                .... done
 Nuclear repulsion                  .... done
 Integral list                      .... done
 Electron-electron repulsion        .... done
-------------------------------------------------------------------------------
                                 ORCA SCF
-------------------------------------------------------------------------------

------------
SCF SETTINGS
------------
Hamiltonian:
 ZDO-Hamiltonian        Method          .... INDO


General Settings:
 Integral files         IntName         .... /Users/mattyjones/GoogleDrive/Boise/Code/MorphCT/tests/output_EZ/donor_polymer/chromophores/input_orca/pair/00008-00022
 Hartree-Fock type      HFTyp           .... RHF
 Total Charge           Charge          ....    0
 Multiplicity           Mult            ....    1
 Number of Electrons    NEL             ....  124
 Basis Dimension        Dim             ....  120
 Nuclear Repulsion      ENuc            ....    636.9120951947 Eh

Convergence Acceleration:
 DIIS                   CNVDIIS         .... on
   Start iteration      DIISMaxIt       ....    12
   Startup error        DIISStart       ....  0.200000
   # of expansion vecs  DIISMaxEq       ....     5
   Bias factor          DIISBfac        ....   1.050
   Max. coefficient     DIISMaxC        ....  10.000
 Newton-Raphson         CNVNR           .... off
 SOSCF                  CNVSOSCF        .... on
   Start iteration      SOSCFMaxIt      ....   150
   Startup grad/error   SOSCFStart      ....  0.003300
 Level Shifting         CNVShift        .... on
   Level shift para.    LevelShift      ....    0.2500
   Turn off err/grad.   ShiftErr        ....    0.0010
 Zerner damping         CNVZerner       .... off
 Static damping         CNVDamp         .... on
   Fraction old density DampFac         ....    0.7000
   Max. Damping (<1)    DampMax         ....    0.9800
   Min. Damping (>=0)   DampMin         ....    0.0000
   Turn off err/grad.   DampErr         ....    0.1000
 Fernandez-Rico         CNVRico         .... off

SCF Procedure:
 Maximum # iterations   MaxIter         ....   125
 SCF integral mode      SCFMode         .... Conventional
 Integral Buffer length BufferLength    .... 1048576
 Integral index format  IndFormat       ....     0
 Integral value format  ValFormat       ....     0
 Integral Storage       Thresh          ....  1.000e-08 Eh

Convergence Tolerance:
 Convergence Check Mode ConvCheckMode   .... Total+1el-Energy
 Energy Change          TolE            ....  1.000e-06 Eh
 1-El. energy change                    ....  1.000e-03 Eh
 Orbital Gradient       TolG            ....  5.000e-05
 Orbital Rotation angle TolX            ....  5.000e-05
 DIIS Error             TolErr          ....  1.000e-06


Diagonalization of the overlap matrix:
Smallest eigenvalue                        ... 1.697e-01
Time for diagonalization                   ...    0.003 sec
Threshold for overlap eigenvalues          ... 1.000e-08
Number of eigenvalues below threshold      ... 0
Time for construction of square roots      ...    0.001 sec
Total time needed                          ...    0.005 sec

-------------------------------
INITIAL GUESS: EXTENDED HUECKEL
-------------------------------
EHT matrix was read from disk
EHT matrix was diagonalized
Initial density was built
                      ------------------
                      INITIAL GUESS DONE
                      ------------------

 InCore treatment chosen:
   Memory dedicated               ...    1024 MB
   Memory needed                  ...      0 MB
   Number of tiny    integrals    ...       0
   Number of small   integrals    ...       0
   Number of regular integrals    ...    7392

--------------
SCF ITERATIONS
--------------
ITER       Energy         Delta-E        Max-DP      RMS-DP      [F,P]     Damp
  0    -20.2047094665   0.000000000000 0.04112208  0.00144183  0.0893231 0.7000
  1    -20.2463553674  -0.041645900895 0.03857427  0.00135717  0.0640923 0.7000
                               ***Turning on DIIS***
  2    -20.2771652357  -0.030809868363 0.09708078  0.00348093  0.0422039 0.0000
  3    -20.3582168338  -0.081051598103 0.01676964  0.00071505  0.0180560 0.0000
  4    -20.3430562757   0.015160558142 0.01045519  0.00049200  0.0062611 0.0000
  5    -20.3596800142  -0.016623738503 0.00726427  0.00033301  0.0036369 0.0000
  6    -20.3623372499  -0.002657235702 0.00554444  0.00023705  0.0020002 0.0000
                      *** Initiating the SOSCF procedure ***
                           *** Shutting down DIIS ***
                      *** Re-Reading the Fockian *** 
                      *** Removing any level shift *** 
ITER      Energy       Delta-E        Grad      Rot      Max-DP    RMS-DP
  7    -20.35815329   0.0041839629  0.003042  0.003042  0.003293  0.000134
  8    -20.35621919   0.0019340977  0.000810  0.002225  0.001636  0.000062
  9    -20.35623377  -0.0000145853  0.000360  0.002189  0.001834  0.000066
 10    -20.35623913  -0.0000053507  0.000030  0.000059  0.000104  0.000004
                 **** Energy Check signals convergence ****
              ***Rediagonalizing the Fockian in SOSCF/NRSCF***

               *****************************************************
               *                     SUCCESS                       *
               *           SCF CONVERGED AFTER  11 CYCLES          *
               *****************************************************


----------------
TOTAL SCF ENERGY
----------------

Total Energy       :          -20.35623917 Eh            -553.92143 eV

Components:
Nuclear Repulsion  :          636.91209519 Eh           17331.25921 eV
Electronic Energy  :         -657.26833437 Eh          -17885.18064 eV

One Electron Energy:        -1224.11848284 Eh          -33309.95736 eV
Two Electron Energy:          566.85014848 Eh           15424.77672 eV


---------------
SCF CONVERGENCE
---------------

  Last Energy change         ...   -4.5056e-08  Tolerance :   1.0000e-06
  Last MAX-Density change    ...    3.4802e-05  Tolerance :   1.0000e-05
  Last RMS-Density change    ...    1.1986e-06  Tolerance :   1.0000e-06
  Last Orbital Gradient      ...    7.3436e-06  Tolerance :   5.0000e-05
  Last Orbital Rotation      ...    1.9765e-05  Tolerance :   5.0000e-05

             **** THE GBW FILE WAS UPDATED (/Users/mattyjones/GoogleDrive/Boise/Code/MorphCT/tests/output_EZ/donor_polymer/chromophores/input_orca/pair/00008-00022.gbw) ****
             **** DENSITY FILE WAS UPDATED (/Users/mattyjones/GoogleDrive/Boise/Code/MorphCT/tests/output_EZ/donor_polymer/chromophores/input_orca/pair/00008-00022.scfp.tmp) ****
             **** ENERGY FILE WAS UPDATED (/Users/mattyjones/GoogleDrive/Boise/Code/MorphCT/tests/output_EZ/donor_polymer/chromophores/input_orca/pair/00008-00022.en.tmp) ****
----------------
ORBITAL ENERGIES
----------------

  NO   OCC          E(Eh)            E(eV) 
   0   2.0000      -1.556978       -42.3675 
   1   2.0000      -1.556051       -42.3423 
   2   2.0000      -1.423956       -38.7478 
   3   2.0000      -1.381925       -37.6041 
   4   2.0000      -1.288261       -35.0554 
   5   2.0000      -1.286866       -35.0174 
   6   2.0000      -1.182373       -32.1740 
   7   2.0000      -1.168541       -31.7976 
   8   2.0000      -1.115932       -30.3661 
   9   2.0000      -1.115281       -30.3483 
  10   2.0000      -1.047172       -28.4950 
  11   2.0000      -1.044022       -28.4093 
  12   2.0000      -0.974211       -26.5096 
  13   2.0000      -0.957484       -26.0545 
  14   2.0000      -0.917996       -24.9799 
  15   2.0000      -0.913586       -24.8600 
  16   2.0000      -0.837353       -22.7855 
  17   2.0000      -0.833553       -22.6821 
  18   2.0000      -0.828741       -22.5512 
  19   2.0000      -0.825440       -22.4614 
  20   2.0000      -0.777947       -21.1690 
  21   2.0000      -0.768324       -20.9072 
  22   2.0000      -0.733939       -19.9715 
  23   2.0000      -0.724394       -19.7118 
  24   2.0000      -0.721496       -19.6329 
  25   2.0000      -0.690268       -18.7832 
  26   2.0000      -0.689515       -18.7627 
  27   2.0000      -0.677107       -18.4250 
  28   2.0000      -0.638823       -17.3833 
  29   2.0000      -0.630686       -17.1618 
  30   2.0000      -0.609731       -16.5916 
  31   2.0000      -0.605987       -16.4898 
  32   2.0000      -0.601639       -16.3714 
  33   2.0000      -0.598630       -16.2896 
  34   2.0000      -0.578424       -15.7397 
  35   2.0000      -0.575913       -15.6714 
  36   2.0000      -0.566538       -15.4163 
  37   2.0000      -0.560666       -15.2565 
  38   2.0000      -0.551596       -15.0097 
  39   2.0000      -0.546915       -14.8823 
  40   2.0000      -0.540169       -14.6987 
  41   2.0000      -0.537271       -14.6199 
  42   2.0000      -0.518886       -14.1196 
  43   2.0000      -0.518428       -14.1071 
  44   2.0000      -0.509137       -13.8543 
  45   2.0000      -0.507180       -13.8011 
  46   2.0000      -0.493524       -13.4295 
  47   2.0000      -0.493482       -13.4283 
  48   2.0000      -0.491363       -13.3707 
  49   2.0000      -0.487538       -13.2666 
  50   2.0000      -0.481232       -13.0950 
  51   2.0000      -0.476609       -12.9692 
  52   2.0000      -0.467621       -12.7246 
  53   2.0000      -0.466230       -12.6868 
  54   2.0000      -0.462278       -12.5792 
  55   2.0000      -0.454223       -12.3600 
  56   2.0000      -0.441064       -12.0020 
  57   2.0000      -0.435634       -11.8542 
  58   2.0000      -0.357151        -9.7186 
  59   2.0000      -0.356292        -9.6952 
  60   2.0000      -0.304860        -8.2957 
  61   2.0000      -0.304671        -8.2905 
  62   0.0000       0.007020         0.1910 
  63   0.0000       0.008148         0.2217 
  64   0.0000       0.064754         1.7620 
  65   0.0000       0.071391         1.9427 
  66   0.0000       0.072794         1.9808 
  67   0.0000       0.079813         2.1718 
  68   0.0000       0.083450         2.2708 
  69   0.0000       0.090694         2.4679 
  70   0.0000       0.102357         2.7853 
  71   0.0000       0.102828         2.7981 
  72   0.0000       0.106987         2.9113 
  73   0.0000       0.107957         2.9377 
  74   0.0000       0.121897         3.3170 
  75   0.0000       0.124240         3.3807 
  76   0.0000       0.140060         3.8112 
  77   0.0000       0.141344         3.8462 
  78   0.0000       0.157596         4.2884 
  79   0.0000       0.158684         4.3180 
  80   0.0000       0.164017         4.4631 
  81   0.0000       0.166110         4.5201 
  82   0.0000       0.169766         4.6196 
  83   0.0000       0.173052         4.7090 
  84   0.0000       0.204273         5.5586 
  85   0.0000       0.208192         5.6652 
  86   0.0000       0.232519         6.3272 
  87   0.0000       0.232571         6.3286 
  88   0.0000       0.234297         6.3755 
  89   0.0000       0.235326         6.4036 
  90   0.0000       0.236937         6.4474 
  91   0.0000       0.237613         6.4658 
  92   0.0000       0.239097         6.5062 
  93   0.0000       0.239381         6.5139 
  94   0.0000       0.240862         6.5542 
  95   0.0000       0.241235         6.5643 
  96   0.0000       0.242324         6.5940 
  97   0.0000       0.242937         6.6107 
  98   0.0000       0.243677         6.6308 
  99   0.0000       0.244030         6.6404 
 100   0.0000       0.245104         6.6696 
 101   0.0000       0.257044         6.9945 
 102   0.0000       0.259085         7.0501 
 103   0.0000       0.265117         7.2142 
 104   0.0000       0.266867         7.2618 
 105   0.0000       0.269186         7.3249 
 106   0.0000       0.271886         7.3984 
 107   0.0000       0.277889         7.5617 
 108   0.0000       0.297355         8.0914 
 109   0.0000       0.304366         8.2822 
 110   0.0000       0.309695         8.4272 
 111   0.0000       0.310471         8.4483 
 112   0.0000       0.337298         9.1783 
 113   0.0000       0.347205         9.4479 
 114   0.0000       0.352279         9.5860 
 115   0.0000       0.361732         9.8432 
 116   0.0000       0.411217        11.1898 
 117   0.0000       0.413660        11.2563 
 118   0.0000       0.429879        11.6976 
 119   0.0000       0.430059        11.7025 
-------
TIMINGS
-------

Total SCF time: 0 days 0 hours 0 min 0 sec 

Total time                  ....       0.142 sec
Sum of individual times     ....       0.107 sec  ( 75.3%)

Fock matrix formation       ....       0.051 sec  ( 35.9%)
Diagonalization             ....       0.025 sec  ( 18.0%)
Density matrix formation    ....       0.005 sec  (  3.6%)
Population analysis         ....       0.000 sec  (  0.0%)
Initial guess               ....       0.003 sec  (  2.2%)
Orbital Transformation      ....       0.000 sec  (  0.0%)
Orbital Orthonormalization  ....       0.000 sec  (  0.0%)
DIIS solution               ....       0.013 sec  (  9.3%)
SOSCF solution              ....       0.009 sec  (  6.2%)

-------------------------   --------------------
FINAL SINGLE POINT ENERGY       -20.356239170385
-------------------------   --------------------


                            ***************************************
                            *     ORCA property calculations      *
                            ***************************************

                                    ---------------------
                                    Active property flags
                                    ---------------------
   (+) Dipole Moment


------------------------------------------------------------------------------
                       ORCA ELECTRIC PROPERTIES CALCULATION
------------------------------------------------------------------------------

Dipole Moment Calculation                       ... on
Quadrupole Moment Calculation                   ... off
Polarizability Calculation                      ... off
GBWName                                         ... /Users/mattyjones/GoogleDrive/Boise/Code/MorphCT/tests/output_EZ/donor_polymer/chromophores/input_orca/pair/00008-00022.gbw
Electron density file                           ... /Users/mattyjones/GoogleDrive/Boise/Code/MorphCT/tests/output_EZ/donor_polymer/chromophores/input_orca/pair/00008-00022.scfp.tmp

-------------
DIPOLE MOMENT
-------------
                                X             Y             Z
Electronic contribution:    -11.14062      19.84365     -31.13006
Nuclear contribution   :      1.72778     -11.91124      16.99315
                        -----------------------------------------
Total Dipole Moment    :     -9.41284       7.93241     -14.13692
                        -----------------------------------------
Magnitude (a.u.)       :     18.74506
Magnitude (Debye)      :     47.64614


Timings for individual modules:

Sum of individual times         ...        0.218 sec (=   0.004 min)
STO integral calculation        ...        0.039 sec (=   0.001 min)  18.1 %
SCF iterations                  ...        0.179 sec (=   0.003 min)  81.9 %
                             ****ORCA TERMINATED NORMALLY****
TOTAL RUN TIME: 0 days 0 hours 0 minutes 0 seconds 558 msec

