
                                 *****************
                                 * O   R   C   A *
                                 *****************

           --- An Ab Initio, DFT and Semiempirical electronic structure package ---

                  #######################################################
                  #                        -***-                        #
                  #  Department of molecular theory and spectroscopy    #
                  #              Directorship: Frank Neese              #
                  # Max Planck Institute for Chemical Energy Conversion #
                  #                  D-45470 Muelheim/Ruhr              #
                  #                       Germany                       #
                  #                                                     #
                  #                  All rights reserved                #
                  #                        -***-                        #
                  #######################################################


                         Program Version 4.0.1.2 - RELEASE -


 With contributions from (in alphabetic order):
   Daniel Aravena         : Magnetic Properties
   Michael Atanasov       : Ab Initio Ligand Field Theory
   Ute Becker             : Parallelization
   Martin Brehm           : Molecular dynamics
   Dmytro Bykov           : SCF Hessian
   Vijay G. Chilkuri      : MRCI spin determinant printing
   Dipayan Datta          : RHF DLPNO-CCSD density
   Achintya Kumar Dutta   : EOM-CC, STEOM-CC
   Dmitry Ganyushin       : Spin-Orbit,Spin-Spin,Magnetic field MRCI
   Yang Guo               : DLPNO-NEVPT2, CIM, IAO-localization
   Andreas Hansen         : Spin unrestricted coupled pair/coupled cluster methods
   Lee Huntington         : MR-EOM, pCC
   Robert Izsak           : Overlap fitted RIJCOSX, COSX-SCS-MP3, EOM
   Christian Kollmar      : KDIIS, OOCD, Brueckner-CCSD(T), CCSD density
   Simone Kossmann        : Meta GGA functionals, TD-DFT gradient, OOMP2, MP2 Hessian
   Martin Krupicka        : AUTO-CI
   Dagmar Lenk            : GEPOL surface
   Dimitrios Liakos       : Extrapolation schemes; parallel MDCI
   Dimitrios Manganas     : ROCIS; embedding schemes
   Dimitrios Pantazis     : SARC Basis sets
   Taras Petrenko         : DFT Hessian,TD-DFT gradient, ASA, ECA, R-Raman, ABS, FL, XAS/XES, NRVS
   Peter Pinski           : DLPNO-MP2
   Christoph Reimann      : Effective Core Potentials
   Marius Retegan         : Local ZFS, SOC
   Christoph Riplinger    : Optimizer, TS searches, QM/MM, DLPNO-CCSD(T), (RO)-DLPNO pert. Triples
   Tobias Risthaus        : Range-separated hybrids, TD-DFT gradient, RPA, STAB
   Michael Roemelt        : Restricted open shell CIS
   Masaaki Saitow         : Open-shell DLPNO
   Barbara Sandhoefer     : DKH picture change effects
   Kantharuban Sivalingam : CASSCF convergence, NEVPT2, FIC-MRCI
   Georgi Stoychev        : AutoAux
   Boris Wezisla          : Elementary symmetry handling
   Frank Wennmohs         : Technical directorship


 We gratefully acknowledge several colleagues who have allowed us to
 interface, adapt or use parts of their codes:
   Stefan Grimme, W. Hujo, H. Kruse,             : VdW corrections, initial TS optimization,
                  C. Bannwarth                     DFT functionals, gCP, sTDA/sTD-DF
   Ed Valeev                                     : LibInt (2-el integral package), F12 methods
   Garnet Chan, S. Sharma, J. Yang, R. Olivares  : DMRG
   Ulf Ekstrom                                   : XCFun DFT Library
   Mihaly Kallay                                 : mrcc  (arbitrary order and MRCC methods)
   Andreas Klamt, Michael Diedenhofen            : otool_cosmo (COSMO solvation model)
   Jiri Pittner, Ondrej Demel                    : Mk-CCSD
   Frank Weinhold                                : gennbo (NPA and NBO analysis)
   Christopher J. Cramer and Donald G. Truhlar   : smd solvation model


 Your calculation uses the libint2 library for the computation of 2-el integrals
 For citations please refer to: http://libint.valeyev.net

 This ORCA versions uses:
   CBLAS   interface :  Fast vector & matrix operations
   LAPACKE interface :  Fast linear algebra routines
   SCALAPACK package :  Parallel linear algebra routines


leaving
Your calculation utilizes the basis: def2-SVP
   F. Weigend and R. Ahlrichs, Phys. Chem. Chem. Phys. 7, 3297 (2005).

================================================================================
                                        WARNINGS
                       Please study these warnings very carefully!
================================================================================

Warning: TCutStore was < 0. Adjusted to Thresh (uncritical)

WARNING: Direct SCF is incompatible with Method<>HF and Method<>DFT
  ===> : conventional SCF is chosen

WARNING: The NDO methods need Guess=HUECKEL or Guess=HCORE or Guess=MOREAD
  ===> : Guess is set to Hueckel

WARNING: The NDO methods need %rel::SOCType==1
  ===> : %rel::SOCType is set to 1

WARNING: The NDO methods cannot have frozencore=1
  ===> : %method FrozenCore=0 end

INFO   : the flag for use of LIBINT has been found!

================================================================================
                                       INPUT FILE
================================================================================
NAME = /home/mattyjones/Software/morphct/tests/output_EZ/donor_polymer/chromophores/input_orca/pair/00006-00029.inp
|  1> # ================================================================
|  2> # Orca input file made by Matty Jones
|  3> # ================================================================
|  4> ! ZINDO/S 
|  5> ! NOPOP
|  6> ! NOMOPRINT
|  7> * xyz 0   1
|  8>  C  -11.60632  -7.37861  -10.66749
|  9>  C  -12.01198  -8.71341  -10.62705
| 10>  C  -11.32280  -9.50391  -9.65524
| 11>  C  -10.36812  -8.78969  -8.92462
| 12>  S  -10.42616  -7.23954  -9.51121
| 13>  H  -12.83905  -9.14618  -11.28204
| 14>  C  -11.52346  -11.07408  -9.32645
| 15>  C  -12.98517  -11.80019  -8.86863
| 16>  C  -14.03392  -12.42456  -10.01926
| 17>  H  -14.41116  -11.55098  -10.67480
| 18>  H  -13.44334  -13.16573  -10.68080
| 19>  H  -12.71241  -12.66608  -8.15375
| 20>  H  -13.57269  -11.00046  -8.27345
| 21>  H  -10.76491  -11.41985  -8.50964
| 22>  H  -11.22472  -11.66579  -10.30050
| 23>  C  -15.30156  -13.18617  -9.33181
| 24>  C  -16.33691  -13.87704  -10.46993
| 25>  C  -17.45226  -12.76561  -11.05750
| 26>  H  -18.43785  -13.31226  -11.32004
| 27>  H  -17.01973  -12.26534  -12.00794
| 28>  H  -17.65963  -11.95672  -10.25618
| 29>  H  -15.71236  -14.28537  -11.34648
| 30>  H  -16.90840  -14.74109  -9.96557
| 31>  H  -14.91501  -14.03753  -8.64972
| 32>  H  -15.90597  -12.44199  -8.68714
| 33>  C  18.08399  11.82640  8.59282
| 34>  C  16.74062  12.01864  8.91884
| 35>  C  16.51349  12.33866  10.29371
| 36>  C  17.68343  12.39943  11.05718
| 37>  S  18.91990  12.05879  10.00574
| 38>  H  15.89084  11.93013  8.16150
| 39>  C  15.15211  12.64883  11.14565
| 40>  C  13.64165  11.88590  11.54328
| 41>  C  12.05095  11.78376  10.94222
| 42>  H  11.37363  12.08347  11.84187
| 43>  H  11.97299  12.63264  10.15470
| 44>  H  13.96120  10.77103  11.60420
| 45>  H  13.46875  12.27066  12.62650
| 46>  H  14.72749  13.64175  10.65511
| 47>  H  15.51194  12.95535  12.22031
| 48>  C  11.39798  10.44129  10.29806
| 49>  C  11.40306  10.36541  8.62035
| 50>  C  10.19280  9.34282  8.04969
| 51>  H  10.21439  8.34546  8.63400
| 52>  H  10.35765  9.14530  6.92231
| 53>  H  9.16684  9.85952  8.20417
| 54>  H  11.23622  11.41941  8.19035
| 55>  H  12.42274  9.95695  8.27360
| 56>  H  11.97841  9.51520  10.68623
| 57>  H  10.29829  10.34678  10.65106
| 58>  H  -11.97497  -6.61481  -11.30333
| 59>  H  -9.73905  -9.16127  -8.15663
| 60>  H  18.48525  11.58312  7.64234
| 61>  H  17.76327  12.61754  12.09142
| 62> *
| 63> 
| 64>                          ****END OF INPUT****
================================================================================

                       ****************************
                       * Single Point Calculation *
                       ****************************

---------------------------------
CARTESIAN COORDINATES (ANGSTROEM)
---------------------------------
  C    -11.606320   -7.378610  -10.667490
  C    -12.011980   -8.713410  -10.627050
  C    -11.322800   -9.503910   -9.655240
  C    -10.368120   -8.789690   -8.924620
  S    -10.426160   -7.239540   -9.511210
  H    -12.839050   -9.146180  -11.282040
  C    -11.523460  -11.074080   -9.326450
  C    -12.985170  -11.800190   -8.868630
  C    -14.033920  -12.424560  -10.019260
  H    -14.411160  -11.550980  -10.674800
  H    -13.443340  -13.165730  -10.680800
  H    -12.712410  -12.666080   -8.153750
  H    -13.572690  -11.000460   -8.273450
  H    -10.764910  -11.419850   -8.509640
  H    -11.224720  -11.665790  -10.300500
  C    -15.301560  -13.186170   -9.331810
  C    -16.336910  -13.877040  -10.469930
  C    -17.452260  -12.765610  -11.057500
  H    -18.437850  -13.312260  -11.320040
  H    -17.019730  -12.265340  -12.007940
  H    -17.659630  -11.956720  -10.256180
  H    -15.712360  -14.285370  -11.346480
  H    -16.908400  -14.741090   -9.965570
  H    -14.915010  -14.037530   -8.649720
  H    -15.905970  -12.441990   -8.687140
  C     18.083990   11.826400    8.592820
  C     16.740620   12.018640    8.918840
  C     16.513490   12.338660   10.293710
  C     17.683430   12.399430   11.057180
  S     18.919900   12.058790   10.005740
  H     15.890840   11.930130    8.161500
  C     15.152110   12.648830   11.145650
  C     13.641650   11.885900   11.543280
  C     12.050950   11.783760   10.942220
  H     11.373630   12.083470   11.841870
  H     11.972990   12.632640   10.154700
  H     13.961200   10.771030   11.604200
  H     13.468750   12.270660   12.626500
  H     14.727490   13.641750   10.655110
  H     15.511940   12.955350   12.220310
  C     11.397980   10.441290   10.298060
  C     11.403060   10.365410    8.620350
  C     10.192800    9.342820    8.049690
  H     10.214390    8.345460    8.634000
  H     10.357650    9.145300    6.922310
  H      9.166840    9.859520    8.204170
  H     11.236220   11.419410    8.190350
  H     12.422740    9.956950    8.273600
  H     11.978410    9.515200   10.686230
  H     10.298290   10.346780   10.651060
  H    -11.974970   -6.614810  -11.303330
  H     -9.739050   -9.161270   -8.156630
  H     18.485250   11.583120    7.642340
  H     17.763270   12.617540   12.091420

----------------------------
CARTESIAN COORDINATES (A.U.)
----------------------------
  NO LB      ZA    FRAG     MASS         X           Y           Z
   0 C     4.0000    0    12.011  -21.932766  -13.943552  -20.158635
   1 C     4.0000    0    12.011  -22.699353  -16.465959  -20.082214
   2 C     4.0000    0    12.011  -21.396991  -17.959787  -18.245759
   3 C     4.0000    0    12.011  -19.592907  -16.610107  -16.865088
   4 S     6.0000    0    32.060  -19.702587  -13.680748  -17.973582
   5 H     1.0000    0     1.008  -24.262288  -17.283775  -21.319966
   6 C     4.0000    0    12.011  -21.776184  -20.926978  -17.624436
   7 C     4.0000    0    12.011  -24.538415  -22.299127  -16.759282
   8 C     4.0000    0    12.011  -26.520265  -23.479016  -18.933657
   9 H     1.0000    0     1.008  -27.233146  -21.828189  -20.172449
  10 H     1.0000    0     1.008  -25.404231  -24.879624  -20.183787
  11 H     1.0000    0     1.008  -24.022973  -23.935422  -15.408354
  12 H     1.0000    0     1.008  -25.648667  -20.787857  -15.634555
  13 H     1.0000    0     1.008  -20.342732  -21.580389  -16.080889
  14 H     1.0000    0     1.008  -21.211647  -22.045148  -19.465124
  15 C     4.0000    0    12.011  -28.915758  -24.918250  -17.634565
  16 C     4.0000    0    12.011  -30.872286  -26.223805  -19.785300
  17 C     4.0000    0    12.011  -32.979992  -24.123507  -20.895647
  18 H     1.0000    0     1.008  -34.842487  -25.156526  -21.391775
  19 H     1.0000    0     1.008  -32.162629  -23.178134  -22.691718
  20 H     1.0000    0     1.008  -33.371864  -22.594926  -19.381371
  21 H     1.0000    0     1.008  -29.692057  -26.995437  -21.441740
  22 H     1.0000    0     1.008  -31.952245  -27.856623  -18.832198
  23 H     1.0000    0     1.008  -28.185284  -26.527087  -16.345602
  24 H     1.0000    0     1.008  -30.057927  -23.511954  -16.416315
  25 C     4.0000    0    12.011   34.173789   22.348657   16.238077
  26 C     4.0000    0    12.011   31.635187   22.711938   16.854165
  27 C     4.0000    0    12.011   31.205974   23.316688   19.452293
  28 C     4.0000    0    12.011   33.416840   23.431527   20.895042
  29 S     6.0000    0    32.060   35.753429   22.787811   18.908108
  30 H     1.0000    0     1.008   30.029336   22.544678   15.423000
  31 C     4.0000    0    12.011   28.633338   23.902825   21.062226
  32 C     4.0000    0    12.011   25.778983   22.461096   21.813638
  33 C     4.0000    0    12.011   22.772995   22.268079   20.677799
  34 H     1.0000    0     1.008   21.493046   22.834449   22.377891
  35 H     1.0000    0     1.008   22.625672   23.872230   19.189602
  36 H     1.0000    0     1.008   26.382845   20.354297   21.928760
  37 H     1.0000    0     1.008   25.452249   23.188187   23.860627
  38 H     1.0000    0     1.008   27.830923   25.779171   20.135240
  39 H     1.0000    0     1.008   29.313318   24.482063   23.093039
  40 C     4.0000    0    12.011   21.539061   19.731179   19.460513
  41 C     4.0000    0    12.011   21.548660   19.587786   16.290101
  42 C     4.0000    0    12.011   19.261601   17.655371   15.211710
  43 H     1.0000    0     1.008   19.302400   15.770634   16.315895
  44 H     1.0000    0     1.008   19.573122   17.282112   13.081270
  45 H     1.0000    0     1.008   17.322817   18.631793   15.503634
  46 H     1.0000    0     1.008   21.233379   21.579558   15.477518
  47 H     1.0000    0     1.008   23.475576   18.815909   15.634838
  48 H     1.0000    0     1.008   22.635914   17.981122   20.194048
  49 H     1.0000    0     1.008   19.460948   19.552581   20.127586
  50 H     1.0000    0     1.008  -22.629414  -12.500179  -21.360198
  51 H     1.0000    0     1.008  -18.404137  -17.312291  -15.413797
  52 H     1.0000    0     1.008   34.932060   21.888925   14.441930
  53 H     1.0000    0     1.008   33.567716   23.843695   22.849472

--------------------------------
INTERNAL COORDINATES (ANGSTROEM)
--------------------------------
 C      0   0   0     0.000000000000     0.00000000     0.00000000
 C      1   0   0     1.395667033787     0.00000000     0.00000000
 C      2   1   0     1.429781101603   114.10200925     0.00000000
 C      3   2   1     1.398331039204   113.69255623     0.00000000
 S      1   2   3     1.658041473818   105.47957534     0.00000000
 H      2   1   3     1.140327390665   123.85758239   178.30014431
 C      3   2   1     1.616725433894   127.97827935   180.02445326
 C      7   3   2     1.695119762318   125.30783147   303.06007953
 C      8   7   3     1.677397942141   120.88473613    90.23930503
 H      9   8   7     1.155501936649   108.17194465   295.85823096
 H      9   8   7     1.155747756606   108.17117997    53.88487787
 H      8   7   3     1.155515869255   106.53081957   212.49514549
 H      8   7   3     1.157146082264   106.30149527   328.22122850
 H      7   3   2     1.167104781714   110.45021042   177.33511743
 H      7   3   2     1.178193411202   106.74753652    63.28253448
 C      9   8   7     1.630812209974   111.75666661   174.89192730
 C     16   9   8     1.686584748478   112.58236857   182.35162764
 C     17  16   9     1.680631063708   111.86526288   275.58360729
 H     18  17  16     1.157212652109   109.39914007   211.58132919
 H     18  17  16     1.157881024717   108.95319262    91.74010466
 H     18  17  16     1.157332748781   109.81944893   331.84850027
 H     17  16   9     1.151145513782   109.03128196    36.43180925
 H     17  16   9     1.152198868338   108.43795636   155.78041569
 H     16   9   8     1.157359719448   109.41183824   301.86747563
 H     16   9   8     1.155298545572   109.94131104    61.10591697
 C      5   1   2    38.782658796774   152.87611614   170.05141753
 C     26   5   1     1.395667659187    57.93899825    84.32490773
 C     27  26   5     1.429779127768   114.10167937   148.40034065
 C     28  27  26     1.398334379682   113.69290228     0.00000000
 S     26   5   1     1.658039072700   146.85798622   151.79027634
 H     27  26   5     1.141719730976   123.42050590   328.41172847
 C     28  27  26     1.635653599299   132.49423611   179.92003801
 C     32  28  27     1.738292614435   139.38869630    58.18102379
 C     33  32  28     1.703535204567   139.19907758   269.00540127
 H     34  33  32     1.165314802532   104.76888233   233.50405523
 H     34  33  32     1.160544168225   104.96881947   346.34111788
 H     33  32  28     1.161360652769   101.20019008    33.70655450
 H     33  32  28     1.162454401686   101.36907925   144.92557278
 H     32  28  27     1.186095174259   103.96330049   296.24736195
 H     32  28  27     1.174021403084   105.73477194   185.21945065
 C     34  33  32     1.625895946056   124.35360368   111.02744062
 C     41  34  33     1.679432768794   115.58644165   261.60983355
 C     42  41  34     1.684064253911   111.33206344   204.06311888
 H     43  42  41     1.156119056931   109.82511635   312.25402851
 H     43  42  41     1.156362978178   109.36800446   191.39688609
 H     43  42  41     1.159067246539   108.67930138    72.01474079
 H     42  41  34     1.150500580443   109.36203813   324.56282717
 H     42  41  34     1.151877787137   108.62789809    84.53417931
 H     41  34  33     1.159835170143   109.00816208    22.46921140
 H     41  34  33     1.158818034119   109.13334194   140.12393287
 H      1   2   3     1.059993286818   127.26053567   179.99984214
 H      4   3   2     1.060004434613   127.20583797   179.99936204
 H     26   5   1     1.060003290750    75.33749901   289.86035404
 H     29  28  27     1.059999422311   127.20565987   180.00028720

---------------------------
INTERNAL COORDINATES (A.U.)
---------------------------
 C      0   0   0     0.000000000000     0.00000000     0.00000000
 C      1   0   0     2.637428468000     0.00000000     0.00000000
 C      2   1   0     2.701894713485   114.10200925     0.00000000
 C      3   2   1     2.642462708656   113.69255623     0.00000000
 S      1   2   3     3.133244304199   105.47957534     0.00000000
 H      2   1   3     2.154906471365   123.85758239   178.30014431
 C      3   2   1     3.055168303805   127.97827935   180.02445326
 C      7   3   2     3.203312114978   125.30783147   303.06007953
 C      8   7   3     3.169822728250   120.88473613    90.23930503
 H      9   8   7     2.183582207483   108.17194465   295.85823096
 H      9   8   7     2.184046739879   108.17117997    53.88487787
 H      8   7   3     2.183608536292   106.53081957   212.49514549
 H      8   7   3     2.186689192420   106.30149527   328.22122850
 H      7   3   2     2.205508407030   110.45021042   177.33511743
 H      7   3   2     2.226462879962   106.74753652    63.28253448
 C      9   8   7     3.081788452706   111.75666661   174.89192730
 C     16   9   8     3.187183276273   112.58236857   182.35162764
 C     17  16   9     3.175932442569   111.86526288   275.58360729
 H     18  17  16     2.186814991194   109.39914007   211.58132919
 H     18  17  16     2.188078032379   108.95319262    91.74010466
 H     18  17  16     2.187041941014   109.81944893   331.84850027
 H     17  16   9     2.175349761340   109.03128196    36.43180925
 H     17  16   9     2.177340312973   108.43795636   155.78041569
 H     16   9   8     2.187092908188   109.41183824   301.86747563
 H     16   9   8     2.183197854048   109.94131104    61.10591697
 C      5   1   2    73.288603871215   152.87611614   170.05141753
 C     26   5   1     2.637429649834    57.93899825    84.32490773
 C     27  26   5     2.701890983478   114.10167937   148.40034065
 C     28  27  26     2.642469021245   113.69290228     0.00000000
 S     26   5   1     3.133239766744   146.85798622   151.79027634
 H     27  26   5     2.157537613239   123.42050590   328.41172847
 C     28  27  26     3.090937352638   132.49423611   179.92003801
 C     32  28  27     3.284896981901   139.38869630    58.18102379
 C     33  32  28     3.219214996126   139.19907758   269.00540127
 H     34  33  32     2.202125836590   104.76888233   233.50405523
 H     34  33  32     2.193110644264   104.96881947   346.34111788
 H     33  32  28     2.194653576445   101.20019008    33.70655450
 H     33  32  28     2.196720462359   101.36907925   144.92557278
 H     32  28  27     2.241395048115   103.96330049   296.24736195
 H     32  28  27     2.218578927191   105.73477194   185.21945065
 C     34  33  32     3.072498060298   124.35360368   111.02744062
 C     41  34  33     3.173667993354   115.58644165   261.60983355
 C     42  41  34     3.182420231818   111.33206344   204.06311888
 H     43  42  41     2.184748395808   109.82511635   312.25402851
 H     43  42  41     2.185209340161   109.36800446   191.39688609
 H     43  42  41     2.190319666757   108.67930138    72.01474079
 H     42  41  34     2.174131013955   109.36203813   324.56282717
 H     42  41  34     2.176733557436   108.62789809    84.53417931
 H     41  34  33     2.191770832060   109.00816208    22.46921140
 H     41  34  33     2.189848723534   109.13334194   140.12393287
 H      1   2   3     2.003097015882   127.26053567   179.99984214
 H      4   3   2     2.003118082161   127.20583797   179.99936204
 H     26   5   1     2.003115920572    75.33749901   289.86035404
 H     29  28  27     2.003108610283   127.20565987   180.00028720

----------------------------
SLATER BASIS SET DIM= 120
----------------------------
  0 C     2 shells
 l=0 nsto= 1
    2       1.625000000000        1.000000000000
 l=1 nsto= 1
    2       1.625000000000        1.000000000000
  1 C     2 shells
 l=0 nsto= 1
    2       1.625000000000        1.000000000000
 l=1 nsto= 1
    2       1.625000000000        1.000000000000
  2 C     2 shells
 l=0 nsto= 1
    2       1.625000000000        1.000000000000
 l=1 nsto= 1
    2       1.625000000000        1.000000000000
  3 C     2 shells
 l=0 nsto= 1
    2       1.625000000000        1.000000000000
 l=1 nsto= 1
    2       1.625000000000        1.000000000000
  4 S     2 shells
 l=0 nsto= 1
    3       1.925000000000        1.000000000000
 l=1 nsto= 1
    3       1.925000000000        1.000000000000
  5 H     1 shells
 l=0 nsto= 1
    1       1.200000000000        1.000000000000
  6 C     2 shells
 l=0 nsto= 1
    2       1.625000000000        1.000000000000
 l=1 nsto= 1
    2       1.625000000000        1.000000000000
  7 C     2 shells
 l=0 nsto= 1
    2       1.625000000000        1.000000000000
 l=1 nsto= 1
    2       1.625000000000        1.000000000000
  8 C     2 shells
 l=0 nsto= 1
    2       1.625000000000        1.000000000000
 l=1 nsto= 1
    2       1.625000000000        1.000000000000
  9 H     1 shells
 l=0 nsto= 1
    1       1.200000000000        1.000000000000
 10 H     1 shells
 l=0 nsto= 1
    1       1.200000000000        1.000000000000
 11 H     1 shells
 l=0 nsto= 1
    1       1.200000000000        1.000000000000
 12 H     1 shells
 l=0 nsto= 1
    1       1.200000000000        1.000000000000
 13 H     1 shells
 l=0 nsto= 1
    1       1.200000000000        1.000000000000
 14 H     1 shells
 l=0 nsto= 1
    1       1.200000000000        1.000000000000
 15 C     2 shells
 l=0 nsto= 1
    2       1.625000000000        1.000000000000
 l=1 nsto= 1
    2       1.625000000000        1.000000000000
 16 C     2 shells
 l=0 nsto= 1
    2       1.625000000000        1.000000000000
 l=1 nsto= 1
    2       1.625000000000        1.000000000000
 17 C     2 shells
 l=0 nsto= 1
    2       1.625000000000        1.000000000000
 l=1 nsto= 1
    2       1.625000000000        1.000000000000
 18 H     1 shells
 l=0 nsto= 1
    1       1.200000000000        1.000000000000
 19 H     1 shells
 l=0 nsto= 1
    1       1.200000000000        1.000000000000
 20 H     1 shells
 l=0 nsto= 1
    1       1.200000000000        1.000000000000
 21 H     1 shells
 l=0 nsto= 1
    1       1.200000000000        1.000000000000
 22 H     1 shells
 l=0 nsto= 1
    1       1.200000000000        1.000000000000
 23 H     1 shells
 l=0 nsto= 1
    1       1.200000000000        1.000000000000
 24 H     1 shells
 l=0 nsto= 1
    1       1.200000000000        1.000000000000
 25 C     2 shells
 l=0 nsto= 1
    2       1.625000000000        1.000000000000
 l=1 nsto= 1
    2       1.625000000000        1.000000000000
 26 C     2 shells
 l=0 nsto= 1
    2       1.625000000000        1.000000000000
 l=1 nsto= 1
    2       1.625000000000        1.000000000000
 27 C     2 shells
 l=0 nsto= 1
    2       1.625000000000        1.000000000000
 l=1 nsto= 1
    2       1.625000000000        1.000000000000
 28 C     2 shells
 l=0 nsto= 1
    2       1.625000000000        1.000000000000
 l=1 nsto= 1
    2       1.625000000000        1.000000000000
 29 S     2 shells
 l=0 nsto= 1
    3       1.925000000000        1.000000000000
 l=1 nsto= 1
    3       1.925000000000        1.000000000000
 30 H     1 shells
 l=0 nsto= 1
    1       1.200000000000        1.000000000000
 31 C     2 shells
 l=0 nsto= 1
    2       1.625000000000        1.000000000000
 l=1 nsto= 1
    2       1.625000000000        1.000000000000
 32 C     2 shells
 l=0 nsto= 1
    2       1.625000000000        1.000000000000
 l=1 nsto= 1
    2       1.625000000000        1.000000000000
 33 C     2 shells
 l=0 nsto= 1
    2       1.625000000000        1.000000000000
 l=1 nsto= 1
    2       1.625000000000        1.000000000000
 34 H     1 shells
 l=0 nsto= 1
    1       1.200000000000        1.000000000000
 35 H     1 shells
 l=0 nsto= 1
    1       1.200000000000        1.000000000000
 36 H     1 shells
 l=0 nsto= 1
    1       1.200000000000        1.000000000000
 37 H     1 shells
 l=0 nsto= 1
    1       1.200000000000        1.000000000000
 38 H     1 shells
 l=0 nsto= 1
    1       1.200000000000        1.000000000000
 39 H     1 shells
 l=0 nsto= 1
    1       1.200000000000        1.000000000000
 40 C     2 shells
 l=0 nsto= 1
    2       1.625000000000        1.000000000000
 l=1 nsto= 1
    2       1.625000000000        1.000000000000
 41 C     2 shells
 l=0 nsto= 1
    2       1.625000000000        1.000000000000
 l=1 nsto= 1
    2       1.625000000000        1.000000000000
 42 C     2 shells
 l=0 nsto= 1
    2       1.625000000000        1.000000000000
 l=1 nsto= 1
    2       1.625000000000        1.000000000000
 43 H     1 shells
 l=0 nsto= 1
    1       1.200000000000        1.000000000000
 44 H     1 shells
 l=0 nsto= 1
    1       1.200000000000        1.000000000000
 45 H     1 shells
 l=0 nsto= 1
    1       1.200000000000        1.000000000000
 46 H     1 shells
 l=0 nsto= 1
    1       1.200000000000        1.000000000000
 47 H     1 shells
 l=0 nsto= 1
    1       1.200000000000        1.000000000000
 48 H     1 shells
 l=0 nsto= 1
    1       1.200000000000        1.000000000000
 49 H     1 shells
 l=0 nsto= 1
    1       1.200000000000        1.000000000000
 50 H     1 shells
 l=0 nsto= 1
    1       1.200000000000        1.000000000000
 51 H     1 shells
 l=0 nsto= 1
    1       1.200000000000        1.000000000000
 52 H     1 shells
 l=0 nsto= 1
    1       1.200000000000        1.000000000000
 53 H     1 shells
 l=0 nsto= 1
    1       1.200000000000        1.000000000000
------------------------------------------------------------------------------
                           ORCA NDO INTEGRAL CALCULATION
------------------------------------------------------------------------------

--------------
NDO PARAMETERS
--------------

Gamma integral treatment              ... Mataga-Nishimoto
Nuclear repulsuion treatment          ... Direct (ZA*ZB/RAB)
Interaction factors:
s-s (sigma) =    1.0000
s-p (sigma) =    1.0000
s-d (sigma) =    1.0000
p-p (sigma) =    1.2670  p-p(pi) =    0.5850
p-d (sigma) =    1.0000  p-d(pi) =    1.0000
d-d (sigma) =    1.0000  d-d(pi) =    1.0000 d-d (delta) =    1.0000

fGamma parameter for Mataga-Nishimoto gamma integrals:    1.2000

--------------------------
Parameters for Element H :
--------------------------
 One-electron parameters (in eV)
  U(s)  =   -13.060000 Beta(s) =    12.000000 Neff(s) =     1.000000
 One-center electron repulsion parameters (in eV)
  G(s,s)=    12.850000
--------------------------
Parameters for Element C :
--------------------------
 One-electron parameters (in eV)
  U(s)  =   -50.870766 Beta(s) =    17.000000 Neff(s) =     2.000000
  U(p)  =   -41.599980 Beta(p) =    17.000000 Neff(p) =     2.000000 
 One-center electron repulsion parameters (in eV)
  G(s,s)=    11.110000
  G(s,p)=    11.110000 G(p,p)  =    11.110000
 Slater-Condon parameters (in eV)
 F2(p,p)=     4.5098 G1(s,p)=    6.8977
--------------------------
Parameters for Element S :
--------------------------
 One-electron parameters (in eV)
  U(s)  =   -69.509597 Beta(s) =    15.000000 Neff(s) =     2.000000
  U(p)  =   -60.725746 Beta(p) =    15.000000 Neff(p) =     4.000000 
 One-center electron repulsion parameters (in eV)
  G(s,s)=    10.090000
  G(s,p)=    10.090000 G(p,p)  =    10.090000
 Slater-Condon parameters (in eV)
 F2(p,p)=     4.5377 G1(s,p)=    3.0756

 Number of atoms                    ....   54
 Number of basis functions          ....  120

 Overlap integrals                  .... done
 One electron matrix                .... done
 Nuclear repulsion                  .... done
 Integral list                      .... done
 Electron-electron repulsion        .... done
-------------------------------------------------------------------------------
                                 ORCA SCF
-------------------------------------------------------------------------------

------------
SCF SETTINGS
------------
Hamiltonian:
 ZDO-Hamiltonian        Method          .... INDO


General Settings:
 Integral files         IntName         .... /home/mattyjones/Software/morphct/tests/output_EZ/donor_polymer/chromophores/input_orca/pair/00006-00029
 Hartree-Fock type      HFTyp           .... RHF
 Total Charge           Charge          ....    0
 Multiplicity           Mult            ....    1
 Number of Electrons    NEL             ....  124
 Basis Dimension        Dim             ....  120
 Nuclear Repulsion      ENuc            ....    631.2109810347 Eh

Convergence Acceleration:
 DIIS                   CNVDIIS         .... on
   Start iteration      DIISMaxIt       ....    12
   Startup error        DIISStart       ....  0.200000
   # of expansion vecs  DIISMaxEq       ....     5
   Bias factor          DIISBfac        ....   1.050
   Max. coefficient     DIISMaxC        ....  10.000
 Newton-Raphson         CNVNR           .... off
 SOSCF                  CNVSOSCF        .... on
   Start iteration      SOSCFMaxIt      ....   150
   Startup grad/error   SOSCFStart      ....  0.003300
 Level Shifting         CNVShift        .... on
   Level shift para.    LevelShift      ....    0.2500
   Turn off err/grad.   ShiftErr        ....    0.0010
 Zerner damping         CNVZerner       .... off
 Static damping         CNVDamp         .... on
   Fraction old density DampFac         ....    0.7000
   Max. Damping (<1)    DampMax         ....    0.9800
   Min. Damping (>=0)   DampMin         ....    0.0000
   Turn off err/grad.   DampErr         ....    0.1000
 Fernandez-Rico         CNVRico         .... off

SCF Procedure:
 Maximum # iterations   MaxIter         ....   125
 SCF integral mode      SCFMode         .... Conventional
 Integral Buffer length BufferLength    .... 1048576
 Integral index format  IndFormat       ....     0
 Integral value format  ValFormat       ....     0
 Integral Storage       Thresh          ....  1.000e-08 Eh

Convergence Tolerance:
 Convergence Check Mode ConvCheckMode   .... Total+1el-Energy
 Convergence forced     ConvForced      .... 0
 Energy Change          TolE            ....  1.000e-06 Eh
 1-El. energy change                    ....  1.000e-03 Eh
 Orbital Gradient       TolG            ....  5.000e-05
 Orbital Rotation angle TolX            ....  5.000e-05
 DIIS Error             TolErr          ....  1.000e-06


Diagonalization of the overlap matrix:
Smallest eigenvalue                        ... 1.698e-01
Time for diagonalization                   ...    0.003 sec
Threshold for overlap eigenvalues          ... 1.000e-08
Number of eigenvalues below threshold      ... 0
Time for construction of square roots      ...    0.000 sec
Total time needed                          ...    0.003 sec

-------------------------------
INITIAL GUESS: EXTENDED HUECKEL
-------------------------------
EHT matrix was read from disk
EHT matrix was diagonalized
Initial density was built
                      ------------------
                      INITIAL GUESS DONE
                      ------------------

 InCore treatment chosen:
   Memory dedicated               ...    1024 MB
   Memory needed                  ...      0 MB
   Number of tiny    integrals    ...       0
   Number of small   integrals    ...       0
   Number of regular integrals    ...    7392

--------------
SCF ITERATIONS
--------------
ITER       Energy         Delta-E        Max-DP      RMS-DP      [F,P]     Damp
  0    -23.8413099543   0.000000000000 0.04485243  0.00143957  0.1047613 0.7000
  1    -23.8828418298  -0.041531875442 0.04424589  0.00135631  0.0720907 0.7000
                               ***Turning on DIIS***
  2    -23.9135744170  -0.030732587238 0.11811108  0.00348399  0.0473806 0.0000
  3    -23.9947899595  -0.081215542452 0.02361066  0.00072947  0.0201870 0.0000
  4    -23.9786494256   0.016140533809 0.01605449  0.00049696  0.0084312 0.0000
  5    -23.9955864586  -0.016937032998 0.01133440  0.00033659  0.0050467 0.0000
  6    -23.9983019787  -0.002715520089 0.00845383  0.00023902  0.0030994 0.0000
                      *** Initiating the SOSCF procedure ***
                           *** Shutting down DIIS ***
                      *** Re-Reading the Fockian *** 
                      *** Removing any level shift *** 
ITER      Energy       Delta-E        Grad      Rot      Max-DP    RMS-DP
  7    -23.99411866   0.0041833178  0.002997  0.002997  0.005071  0.000135
  8    -23.99240548   0.0017131771  0.000797  0.002184  0.002543  0.000062
  9    -23.99242002  -0.0000145377  0.000356  0.002160  0.002834  0.000066
 10    -23.99242535  -0.0000053311  0.000028  0.000051  0.000134  0.000003
                 **** Energy Check signals convergence ****
              ***Rediagonalizing the Fockian in SOSCF/NRSCF***

               *****************************************************
               *                     SUCCESS                       *
               *           SCF CONVERGED AFTER  11 CYCLES          *
               *****************************************************


----------------
TOTAL SCF ENERGY
----------------

Total Energy       :          -23.99242540 Eh            -652.86709 eV

Components:
Nuclear Repulsion  :          631.21098103 Eh           17176.12401 eV
Electronic Energy  :         -655.20340643 Eh          -17828.99110 eV
One Electron Energy:        -1220.05244094 Eh          -33199.31474 eV
Two Electron Energy:          564.84903451 Eh           15370.32364 eV


---------------
SCF CONVERGENCE
---------------

  Last Energy change         ...   -4.2929e-08  Tolerance :   1.0000e-06
  Last MAX-Density change    ...    3.1149e-05  Tolerance :   1.0000e-05
  Last RMS-Density change    ...    9.8447e-07  Tolerance :   1.0000e-06
  Last Orbital Gradient      ...    5.8996e-06  Tolerance :   5.0000e-05
  Last Orbital Rotation      ...    1.4927e-05  Tolerance :   5.0000e-05

             **** THE GBW FILE WAS UPDATED (/home/mattyjones/Software/morphct/tests/output_EZ/donor_polymer/chromophores/input_orca/pair/00006-00029.gbw) ****
             **** DENSITY FILE WAS UPDATED (/home/mattyjones/Software/morphct/tests/output_EZ/donor_polymer/chromophores/input_orca/pair/00006-00029.scfp.tmp) ****
             **** ENERGY FILE WAS UPDATED (/home/mattyjones/Software/morphct/tests/output_EZ/donor_polymer/chromophores/input_orca/pair/00006-00029.en.tmp) ****
----------------
ORBITAL ENERGIES
----------------

  NO   OCC          E(Eh)            E(eV) 
   0   2.0000      -1.555986       -42.3405 
   1   2.0000      -1.555792       -42.3353 
   2   2.0000      -1.408576       -38.3293 
   3   2.0000      -1.392566       -37.8936 
   4   2.0000      -1.294610       -35.2281 
   5   2.0000      -1.285129       -34.9701 
   6   2.0000      -1.197914       -32.5969 
   7   2.0000      -1.185710       -32.2648 
   8   2.0000      -1.107406       -30.1341 
   9   2.0000      -1.105626       -30.0856 
  10   2.0000      -1.040520       -28.3140 
  11   2.0000      -1.031412       -28.0661 
  12   2.0000      -0.967917       -26.3384 
  13   2.0000      -0.965679       -26.2775 
  14   2.0000      -0.903623       -24.5888 
  15   2.0000      -0.891640       -24.2628 
  16   2.0000      -0.872164       -23.7328 
  17   2.0000      -0.866983       -23.5918 
  18   2.0000      -0.831519       -22.6268 
  19   2.0000      -0.831056       -22.6142 
  20   2.0000      -0.774807       -21.0836 
  21   2.0000      -0.774528       -21.0760 
  22   2.0000      -0.732132       -19.9223 
  23   2.0000      -0.722226       -19.6528 
  24   2.0000      -0.700378       -19.0583 
  25   2.0000      -0.681150       -18.5350 
  26   2.0000      -0.678879       -18.4732 
  27   2.0000      -0.671805       -18.2807 
  28   2.0000      -0.653764       -17.7898 
  29   2.0000      -0.629019       -17.1165 
  30   2.0000      -0.610048       -16.6003 
  31   2.0000      -0.609226       -16.5779 
  32   2.0000      -0.608012       -16.5448 
  33   2.0000      -0.591784       -16.1033 
  34   2.0000      -0.575765       -15.6674 
  35   2.0000      -0.572281       -15.5725 
  36   2.0000      -0.568237       -15.4625 
  37   2.0000      -0.558059       -15.1856 
  38   2.0000      -0.553172       -15.0526 
  39   2.0000      -0.547833       -14.9073 
  40   2.0000      -0.537858       -14.6359 
  41   2.0000      -0.533579       -14.5194 
  42   2.0000      -0.514616       -14.0034 
  43   2.0000      -0.513197       -13.9648 
  44   2.0000      -0.504995       -13.7416 
  45   2.0000      -0.503719       -13.7069 
  46   2.0000      -0.502496       -13.6736 
  47   2.0000      -0.493992       -13.4422 
  48   2.0000      -0.493058       -13.4168 
  49   2.0000      -0.489467       -13.3191 
  50   2.0000      -0.476443       -12.9647 
  51   2.0000      -0.471266       -12.8238 
  52   2.0000      -0.470145       -12.7933 
  53   2.0000      -0.465787       -12.6747 
  54   2.0000      -0.464308       -12.6345 
  55   2.0000      -0.440535       -11.9876 
  56   2.0000      -0.438654       -11.9364 
  57   2.0000      -0.433280       -11.7901 
  58   2.0000      -0.357400        -9.7253 
  59   2.0000      -0.357251        -9.7213 
  60   2.0000      -0.305451        -8.3117 
  61   2.0000      -0.304750        -8.2927 
  62   0.0000       0.005813         0.1582 
  63   0.0000       0.007554         0.2056 
  64   0.0000       0.042178         1.1477 
  65   0.0000       0.066328         1.8049 
  66   0.0000       0.072789         1.9807 
  67   0.0000       0.076557         2.0832 
  68   0.0000       0.084177         2.2906 
  69   0.0000       0.090475         2.4620 
  70   0.0000       0.101164         2.7528 
  71   0.0000       0.105174         2.8619 
  72   0.0000       0.107142         2.9155 
  73   0.0000       0.108649         2.9565 
  74   0.0000       0.124499         3.3878 
  75   0.0000       0.124659         3.3921 
  76   0.0000       0.141048         3.8381 
  77   0.0000       0.141055         3.8383 
  78   0.0000       0.154211         4.1963 
  79   0.0000       0.157957         4.2982 
  80   0.0000       0.164330         4.4717 
  81   0.0000       0.165092         4.4924 
  82   0.0000       0.171540         4.6679 
  83   0.0000       0.173593         4.7237 
  84   0.0000       0.201542         5.4842 
  85   0.0000       0.205720         5.5979 
  86   0.0000       0.224086         6.0977 
  87   0.0000       0.228486         6.2174 
  88   0.0000       0.230304         6.2669 
  89   0.0000       0.232348         6.3225 
  90   0.0000       0.233485         6.3534 
  91   0.0000       0.236952         6.4478 
  92   0.0000       0.237913         6.4740 
  93   0.0000       0.238134         6.4799 
  94   0.0000       0.238992         6.5033 
  95   0.0000       0.240165         6.5352 
  96   0.0000       0.240957         6.5568 
  97   0.0000       0.242015         6.5856 
  98   0.0000       0.243432         6.6241 
  99   0.0000       0.243538         6.6270 
 100   0.0000       0.245024         6.6675 
 101   0.0000       0.252722         6.8769 
 102   0.0000       0.260688         7.0937 
 103   0.0000       0.265351         7.2206 
 104   0.0000       0.265909         7.2358 
 105   0.0000       0.266950         7.2641 
 106   0.0000       0.275416         7.4944 
 107   0.0000       0.284613         7.7447 
 108   0.0000       0.300777         8.1846 
 109   0.0000       0.301338         8.1998 
 110   0.0000       0.308879         8.4050 
 111   0.0000       0.310099         8.4382 
 112   0.0000       0.337892         9.1945 
 113   0.0000       0.342824         9.3287 
 114   0.0000       0.357991         9.7414 
 115   0.0000       0.366262         9.9665 
 116   0.0000       0.403528        10.9806 
 117   0.0000       0.407309        11.0835 
 118   0.0000       0.434856        11.8330 
 119   0.0000       0.440021        11.9736 
-------
TIMINGS
-------

Total SCF time: 0 days 0 hours 0 min 0 sec 

Total time                  ....       0.130 sec
Sum of individual times     ....       0.108 sec  ( 83.0%)

Fock matrix formation       ....       0.042 sec  ( 32.0%)
Diagonalization             ....       0.027 sec  ( 20.6%)
Density matrix formation    ....       0.003 sec  (  2.3%)
Population analysis         ....       0.000 sec  (  0.0%)
Initial guess               ....       0.004 sec  (  2.7%)
Orbital Transformation      ....       0.000 sec  (  0.0%)
Orbital Orthonormalization  ....       0.000 sec  (  0.0%)
DIIS solution               ....       0.005 sec  (  3.9%)
SOSCF solution              ....       0.028 sec  ( 21.5%)

-------------------------   --------------------
FINAL SINGLE POINT ENERGY       -23.992425395705
-------------------------   --------------------


                            ***************************************
                            *     ORCA property calculations      *
                            ***************************************

                                    ---------------------
                                    Active property flags
                                    ---------------------
   (+) Dipole Moment


------------------------------------------------------------------------------
                       ORCA ELECTRIC PROPERTIES CALCULATION
------------------------------------------------------------------------------

Dipole Moment Calculation                       ... on
Quadrupole Moment Calculation                   ... off
Polarizability Calculation                      ... off
GBWName                                         ... /home/mattyjones/Software/morphct/tests/output_EZ/donor_polymer/chromophores/input_orca/pair/00006-00029.gbw
Electron density file                           ... /home/mattyjones/Software/morphct/tests/output_EZ/donor_polymer/chromophores/input_orca/pair/00006-00029.scfp.tmp
The origin for moment calculation is the CENTER OF MASS  = ( 2.093381,  1.182247  0.117953)

-------------
DIPOLE MOMENT
-------------
                                X             Y             Z
Electronic contribution:    234.72389     134.56347      18.13237
Nuclear contribution   :   -123.10051     -69.66814      -7.04062
                        -----------------------------------------
Total Dipole Moment    :    111.62338      64.89533      11.09175
                        -----------------------------------------
Magnitude (a.u.)       :    129.59247
Magnitude (Debye)      :    329.39789


Timings for individual modules:

Sum of individual times         ...        0.160 sec (=   0.003 min)
STO integral calculation        ...        0.019 sec (=   0.000 min)  12.0 %
SCF iterations                  ...        0.141 sec (=   0.002 min)  88.0 %
                             ****ORCA TERMINATED NORMALLY****
TOTAL RUN TIME: 0 days 0 hours 0 minutes 0 seconds 460 msec

