
                                 *****************
                                 * O   R   C   A *
                                 *****************

           --- An Ab Initio, DFT and Semiempirical electronic structure package ---

                  #######################################################
                  #                        -***-                        #
                  #  Department of molecular theory and spectroscopy    #
                  #              Directorship: Frank Neese              #
                  # Max Planck Institute for Chemical Energy Conversion #
                  #                  D-45470 Muelheim/Ruhr              #
                  #                       Germany                       #
                  #                                                     #
                  #                  All rights reserved                #
                  #                        -***-                        #
                  #######################################################


                         Program Version 4.0.1.2 - RELEASE -


 With contributions from (in alphabetic order):
   Daniel Aravena         : Magnetic Properties
   Michael Atanasov       : Ab Initio Ligand Field Theory
   Ute Becker             : Parallelization
   Martin Brehm           : Molecular dynamics
   Dmytro Bykov           : SCF Hessian
   Vijay G. Chilkuri      : MRCI spin determinant printing
   Dipayan Datta          : RHF DLPNO-CCSD density
   Achintya Kumar Dutta   : EOM-CC, STEOM-CC
   Dmitry Ganyushin       : Spin-Orbit,Spin-Spin,Magnetic field MRCI
   Yang Guo               : DLPNO-NEVPT2, CIM, IAO-localization
   Andreas Hansen         : Spin unrestricted coupled pair/coupled cluster methods
   Lee Huntington         : MR-EOM, pCC
   Robert Izsak           : Overlap fitted RIJCOSX, COSX-SCS-MP3, EOM
   Christian Kollmar      : KDIIS, OOCD, Brueckner-CCSD(T), CCSD density
   Simone Kossmann        : Meta GGA functionals, TD-DFT gradient, OOMP2, MP2 Hessian
   Martin Krupicka        : AUTO-CI
   Dagmar Lenk            : GEPOL surface
   Dimitrios Liakos       : Extrapolation schemes; parallel MDCI
   Dimitrios Manganas     : ROCIS; embedding schemes
   Dimitrios Pantazis     : SARC Basis sets
   Taras Petrenko         : DFT Hessian,TD-DFT gradient, ASA, ECA, R-Raman, ABS, FL, XAS/XES, NRVS
   Peter Pinski           : DLPNO-MP2
   Christoph Reimann      : Effective Core Potentials
   Marius Retegan         : Local ZFS, SOC
   Christoph Riplinger    : Optimizer, TS searches, QM/MM, DLPNO-CCSD(T), (RO)-DLPNO pert. Triples
   Tobias Risthaus        : Range-separated hybrids, TD-DFT gradient, RPA, STAB
   Michael Roemelt        : Restricted open shell CIS
   Masaaki Saitow         : Open-shell DLPNO
   Barbara Sandhoefer     : DKH picture change effects
   Kantharuban Sivalingam : CASSCF convergence, NEVPT2, FIC-MRCI
   Georgi Stoychev        : AutoAux
   Boris Wezisla          : Elementary symmetry handling
   Frank Wennmohs         : Technical directorship


 We gratefully acknowledge several colleagues who have allowed us to
 interface, adapt or use parts of their codes:
   Stefan Grimme, W. Hujo, H. Kruse,             : VdW corrections, initial TS optimization,
                  C. Bannwarth                     DFT functionals, gCP, sTDA/sTD-DF
   Ed Valeev                                     : LibInt (2-el integral package), F12 methods
   Garnet Chan, S. Sharma, J. Yang, R. Olivares  : DMRG
   Ulf Ekstrom                                   : XCFun DFT Library
   Mihaly Kallay                                 : mrcc  (arbitrary order and MRCC methods)
   Andreas Klamt, Michael Diedenhofen            : otool_cosmo (COSMO solvation model)
   Jiri Pittner, Ondrej Demel                    : Mk-CCSD
   Frank Weinhold                                : gennbo (NPA and NBO analysis)
   Christopher J. Cramer and Donald G. Truhlar   : smd solvation model


 Your calculation uses the libint2 library for the computation of 2-el integrals
 For citations please refer to: http://libint.valeyev.net

 This ORCA versions uses:
   CBLAS   interface :  Fast vector & matrix operations
   LAPACKE interface :  Fast linear algebra routines
   SCALAPACK package :  Parallel linear algebra routines


leaving
Your calculation utilizes the basis: def2-SVP
   F. Weigend and R. Ahlrichs, Phys. Chem. Chem. Phys. 7, 3297 (2005).

================================================================================
                                        WARNINGS
                       Please study these warnings very carefully!
================================================================================

Warning: TCutStore was < 0. Adjusted to Thresh (uncritical)

WARNING: Direct SCF is incompatible with Method<>HF and Method<>DFT
  ===> : conventional SCF is chosen

WARNING: The NDO methods need Guess=HUECKEL or Guess=HCORE or Guess=MOREAD
  ===> : Guess is set to Hueckel

WARNING: The NDO methods need %rel::SOCType==1
  ===> : %rel::SOCType is set to 1

WARNING: The NDO methods cannot have frozencore=1
  ===> : %method FrozenCore=0 end

INFO   : the flag for use of LIBINT has been found!

================================================================================
                                       INPUT FILE
================================================================================
NAME = /home/mattyjones/Software/morphct/tests/output_EZ/donor_polymer/chromophores/input_orca/pair/00001-00008.inp
|  1> # ================================================================
|  2> # Orca input file made by Matty Jones
|  3> # ================================================================
|  4> ! ZINDO/S 
|  5> ! NOPOP
|  6> ! NOMOPRINT
|  7> * xyz 0   1
|  8>  C  -7.76291  -31.81709  -10.64074
|  9>  C  -6.58144  -31.14758  -10.31860
| 10>  C  -5.75288  -31.84260  -9.38335
| 11>  C  -6.28278  -33.06710  -8.96487
| 12>  S  -7.72822  -33.22321  -9.76283
| 13>  H  -6.29044  -30.12907  -10.74639
| 14>  C  -4.28049  -31.49208  -8.70353
| 15>  C  -3.30813  -30.21816  -7.94593
| 16>  C  -2.06404  -29.18466  -8.52856
| 17>  H  -2.47789  -28.66565  -9.47125
| 18>  H  -1.19180  -29.88248  -8.83333
| 19>  H  -2.81104  -30.75537  -7.05280
| 20>  H  -4.11404  -29.49148  -7.55368
| 21>  H  -4.22252  -32.20036  -7.78164
| 22>  H  -3.49809  -31.86052  -9.49817
| 23>  C  -1.46112  -28.03804  -7.51068
| 24>  C  -0.41276  -28.32754  -6.18403
| 25>  C  1.27113  -28.32167  -6.32235
| 26>  H  1.57154  -28.24575  -7.43489
| 27>  H  1.68913  -29.30370  -5.87141
| 28>  H  1.70566  -27.42116  -5.73786
| 29>  H  -0.66152  -27.49461  -5.41940
| 30>  H  -0.71723  -29.34632  -5.73838
| 31>  H  -2.36538  -27.47128  -7.06114
| 32>  H  -0.86409  -27.29628  -8.17604
| 33>  C  5.61769  33.85446  6.96118
| 34>  C  4.85796  32.77846  7.42260
| 35>  C  5.55235  31.92064  8.33157
| 36>  C  6.86704  32.32131  8.58921
| 37>  S  7.09786  33.69650  7.69143
| 38>  H  3.78441  32.56121  7.10124
| 39>  C  4.87489  30.62443  9.00982
| 40>  C  3.90349  29.52873  8.13428
| 41>  C  2.23735  29.87157  8.13228
| 42>  H  1.89499  29.88049  9.23724
| 43>  H  2.10891  30.93447  7.69795
| 44>  H  4.03997  28.48817  8.60693
| 45>  H  4.26681  29.51781  7.04353
| 46>  H  4.20923  30.97679  9.90394
| 47>  H  5.71925  29.94686  9.44971
| 48>  C  1.29279  28.83734  7.29461
| 49>  C  0.79765  27.43175  8.10428
| 50>  C  -0.63103  27.54268  8.98756
| 51>  H  -1.24603  28.45296  8.62656
| 52>  H  -0.37595  27.66752  10.10993
| 53>  H  -1.24815  26.57427  8.83830
| 54>  H  1.64235  27.12058  8.82373
| 55>  H  0.65198  26.61044  7.30711
| 56>  H  0.33044  29.39361  6.96984
| 57>  H  1.85655  28.49903  6.34274
| 58>  H  -8.52227  -31.49464  -11.30631
| 59>  H  -5.85100  -33.75213  -8.28083
| 60>  H  5.31273  34.61277  6.28622
| 61>  H  7.56911  31.84567  9.22518
| 62> *
| 63> 
| 64>                          ****END OF INPUT****
================================================================================

                       ****************************
                       * Single Point Calculation *
                       ****************************

---------------------------------
CARTESIAN COORDINATES (ANGSTROEM)
---------------------------------
  C     -7.762910  -31.817090  -10.640740
  C     -6.581440  -31.147580  -10.318600
  C     -5.752880  -31.842600   -9.383350
  C     -6.282780  -33.067100   -8.964870
  S     -7.728220  -33.223210   -9.762830
  H     -6.290440  -30.129070  -10.746390
  C     -4.280490  -31.492080   -8.703530
  C     -3.308130  -30.218160   -7.945930
  C     -2.064040  -29.184660   -8.528560
  H     -2.477890  -28.665650   -9.471250
  H     -1.191800  -29.882480   -8.833330
  H     -2.811040  -30.755370   -7.052800
  H     -4.114040  -29.491480   -7.553680
  H     -4.222520  -32.200360   -7.781640
  H     -3.498090  -31.860520   -9.498170
  C     -1.461120  -28.038040   -7.510680
  C     -0.412760  -28.327540   -6.184030
  C      1.271130  -28.321670   -6.322350
  H      1.571540  -28.245750   -7.434890
  H      1.689130  -29.303700   -5.871410
  H      1.705660  -27.421160   -5.737860
  H     -0.661520  -27.494610   -5.419400
  H     -0.717230  -29.346320   -5.738380
  H     -2.365380  -27.471280   -7.061140
  H     -0.864090  -27.296280   -8.176040
  C      5.617690   33.854460    6.961180
  C      4.857960   32.778460    7.422600
  C      5.552350   31.920640    8.331570
  C      6.867040   32.321310    8.589210
  S      7.097860   33.696500    7.691430
  H      3.784410   32.561210    7.101240
  C      4.874890   30.624430    9.009820
  C      3.903490   29.528730    8.134280
  C      2.237350   29.871570    8.132280
  H      1.894990   29.880490    9.237240
  H      2.108910   30.934470    7.697950
  H      4.039970   28.488170    8.606930
  H      4.266810   29.517810    7.043530
  H      4.209230   30.976790    9.903940
  H      5.719250   29.946860    9.449710
  C      1.292790   28.837340    7.294610
  C      0.797650   27.431750    8.104280
  C     -0.631030   27.542680    8.987560
  H     -1.246030   28.452960    8.626560
  H     -0.375950   27.667520   10.109930
  H     -1.248150   26.574270    8.838300
  H      1.642350   27.120580    8.823730
  H      0.651980   26.610440    7.307110
  H      0.330440   29.393610    6.969840
  H      1.856550   28.499030    6.342740
  H     -8.522270  -31.494640  -11.306310
  H     -5.851000  -33.752130   -8.280830
  H      5.312730   34.612770    6.286220
  H      7.569110   31.845670    9.225180

----------------------------
CARTESIAN COORDINATES (A.U.)
----------------------------
  NO LB      ZA    FRAG     MASS         X           Y           Z
   0 C     4.0000    0    12.011  -14.669774  -60.125586  -20.108084
   1 C     4.0000    0    12.011  -12.437119  -58.860396  -19.499328
   2 C     4.0000    0    12.011  -10.871368  -60.173793  -17.731962
   3 C     4.0000    0    12.011  -11.872734  -62.487763  -16.941149
   4 S     6.0000    0    32.060  -14.604219  -62.782768  -18.449075
   5 H     1.0000    0     1.008  -11.887209  -56.935691  -20.307734
   6 C     4.0000    0    12.011   -8.088954  -59.511407  -16.447288
   7 C     4.0000    0    12.011   -6.251460  -57.104047  -15.015632
   8 C     4.0000    0    12.011   -3.900470  -55.151015  -16.116643
   9 H     1.0000    0     1.008   -4.682533  -54.170228  -17.898069
  10 H     1.0000    0     1.008   -2.252176  -56.469703  -16.692575
  11 H     1.0000    0     1.008   -5.312096  -58.119226  -13.327860
  12 H     1.0000    0     1.008   -7.774409  -55.730820  -14.274387
  13 H     1.0000    0     1.008   -7.979406  -60.849862  -14.705168
  14 H     1.0000    0     1.008   -6.610432  -60.207657  -17.948940
  15 C     4.0000    0    12.011   -2.761117  -52.984217  -14.193128
  16 C     4.0000    0    12.011   -0.780003  -53.531293  -11.686123
  17 C     4.0000    0    12.011    2.402088  -53.520200  -11.947510
  18 H     1.0000    0     1.008    2.969780  -53.376732  -14.049906
  19 H     1.0000    0     1.008    3.191993  -55.375968  -11.095357
  20 H     1.0000    0     1.008    3.223230  -51.818483  -10.842984
  21 H     1.0000    0     1.008   -1.250092  -51.957283  -10.241182
  22 H     1.0000    0     1.008   -1.355368  -55.456508  -10.843967
  23 H     1.0000    0     1.008   -4.469920  -51.913196  -13.343621
  24 H     1.0000    0     1.008   -1.632893  -51.582494  -15.450476
  25 C     4.0000    0    12.011   10.615896   63.975658   13.154724
  26 C     4.0000    0    12.011    9.180214   61.942312   14.026681
  27 C     4.0000    0    12.011   10.492421   60.321268   15.744386
  28 C     4.0000    0    12.011   12.976825   61.078424   16.231255
  29 S     6.0000    0    32.060   13.413012   63.677157   14.534696
  30 H     1.0000    0     1.008    7.151498   61.531769   13.419399
  31 C     4.0000    0    12.011    9.212207   57.871786   17.026092
  32 C     4.0000    0    12.011    7.376527   55.801213   15.371561
  33 C     4.0000    0    12.011    4.227979   56.449086   15.367782
  34 H     1.0000    0     1.008    3.581012   56.465943   17.455854
  35 H     1.0000    0     1.008    3.985262   58.457676   14.547017
  36 H     1.0000    0     1.008    7.634437   53.834839   16.264741
  37 H     1.0000    0     1.008    8.063102   55.780577   13.310343
  38 H     1.0000    0     1.008    7.954292   58.537650   18.715734
  39 H     1.0000    0     1.008   10.807816   56.591364   17.857364
  40 C     4.0000    0    12.011    2.443019   54.494675   13.784815
  41 C     4.0000    0    12.011    1.507340   51.838495   15.314870
  42 C     4.0000    0    12.011   -1.192474   52.048122   16.984027
  43 H     1.0000    0     1.008   -2.354655   53.768302   16.301836
  44 H     1.0000    0     1.008   -0.710443   52.284036   19.104999
  45 H     1.0000    0     1.008   -2.358662   50.218093   16.701966
  46 H     1.0000    0     1.008    3.103592   51.250469   16.674433
  47 H     1.0000    0     1.008    1.232064   50.286444   13.808437
  48 H     1.0000    0     1.008    0.624441   55.545873   13.171089
  49 H     1.0000    0     1.008    3.508371   53.855362   11.986042
  50 H     1.0000    0     1.008  -16.104756  -59.516244  -21.365829
  51 H     1.0000    0     1.008  -11.056788  -63.782282  -15.648501
  52 H     1.0000    0     1.008   10.039605   65.408656   11.879234
  53 H     1.0000    0     1.008   14.303545   60.179595   17.433064

--------------------------------
INTERNAL COORDINATES (ANGSTROEM)
--------------------------------
 C      0   0   0     0.000000000000     0.00000000     0.00000000
 C      1   0   0     1.395668005150     0.00000000     0.00000000
 C      2   1   0     1.429775169913   114.10180649     0.00000000
 C      3   2   1     1.398327490397   113.69279293     0.00000000
 S      1   2   3     1.658041862741   105.47960942     0.00000000
 H      2   1   3     1.142386932786   123.84102128   180.58409362
 C      3   2   1     1.659202162155   132.81045441   179.41837647
 C      7   3   2     1.772657297957   144.45926946    44.36147292
 C      8   7   3     1.719110204437   133.16944294   259.99648586
 H      9   8   7     1.152956043698   106.73634946    53.04999449
 H      9   8   7     1.157860148248   105.78639949   296.99035540
 H      8   7   3     1.154718255290   103.43608023   136.71578563
 H      8   7   3     1.153869495654   102.40124015    23.09456360
 H      7   3   2     1.164002685306   103.89545232   162.59026817
 H      7   3   2     1.174457544231   104.34013097   275.84224792
 C      9   8   7     1.647522274569   118.28447322   176.08031302
 C     16   9   8     1.715479280580   125.73106918    73.91864023
 C     17  16   9     1.689571665068   123.03597198    89.84819897
 H     18  17  16     1.154883226175   109.77579992   352.18873893
 H     18  17  16     1.158643087624   108.95022722   232.06483931
 H     18  17  16     1.158172327894   109.59140152   112.75989505
 H     17  16   9     1.157718860259   104.95363489   209.96446509
 H     17  16   9     1.152917426271   106.65829259   325.40998211
 H     16   9   8     1.158010905303   107.13944389   310.10446471
 H     16   9   8     1.161618116293   106.17788708   194.73042347
 C     21  18  17    62.699850095729   152.31159717   304.49432118
 C     26  21  18     1.395662598661    43.90831420    90.19963809
 C     27  26  21     1.429775886424   114.10204910    77.86549497
 C     28  27  26     1.398329222537   113.69307512     0.00000000
 S     26  21  18     1.658046939323    92.96911506   199.55840203
 H     27  26  21     1.141481237078   124.44470937   259.33983369
 C     28  27  26     1.612183450542   123.07638366   179.23648543
 C     32  28  27     1.706091070723   122.66433061    43.46221958
 C     33  32  28     1.701048431174   115.39471907   268.67457266
 H     34  33  32     1.156817417573   106.87636931   301.45658536
 H     34  33  32     1.155376904954   107.14208299    57.72071421
 H     33  32  28     1.150995189608   107.59927741   148.83162480
 H     33  32  28     1.149720066494   108.24237079    29.88356669
 H     32  28  27     1.169064317991   108.58412451   280.52423752
 H     32  28  27     1.168566697540   108.71898925   164.02428426
 C     34  33  32     1.632028282659   116.08915237   179.76263807
 C     41  34  33     1.695998931780   116.68791185    84.33887851
 C     42  41  34     1.683334656478   116.33808372    88.63037483
 H     43  42  41     1.156354477831   109.84341057    19.05751279
 H     43  42  41     1.157741443026   109.19597346   258.87906577
 H     43  42  41     1.157986860936   109.24202114   139.24262485
 H     42  41  34     1.152368500698   107.92918156   326.86350651
 H     42  41  34     1.153798021276   107.27523557   209.10780155
 H     41  34  33     1.158028232946   108.69355486   205.13654870
 H     41  34  33     1.156864508315   109.00172943   323.03337370
 H      1   2   3     1.059992941958   127.26038467   180.00048160
 H      4   3   2     1.060005090035   127.20575347   180.00072186
 H     26  21  18     1.060002669478   123.51935320   339.15759891
 H     29  28  27     1.059996950656   127.20627472   179.99970052

---------------------------
INTERNAL COORDINATES (A.U.)
---------------------------
 C      0   0   0     0.000000000000     0.00000000     0.00000000
 C      1   0   0     2.637430303610     0.00000000     0.00000000
 C      2   1   0     2.701883504216   114.10180649     0.00000000
 C      3   2   1     2.642456002384   113.69279293     0.00000000
 S      1   2   3     3.133245039156   105.47960942     0.00000000
 H      2   1   3     2.158798441936   123.84102128   180.58409362
 C      3   2   1     3.135437687283   132.81045441   179.41837647
 C      7   3   2     3.349836822435   144.45926946    44.36147292
 C      8   7   3     3.248647480416   133.16944294   259.99648586
 H      9   8   7     2.178771167039   106.73634946    53.04999449
 H      9   8   7     2.188038581569   105.78639949   296.99035540
 H      8   7   3     2.182101264337   103.43608023   136.71578563
 H      8   7   3     2.180497341071   102.40124015    23.09456360
 H      7   3   2     2.199646294378   103.89545232   162.59026817
 H      7   3   2     2.219403114513   104.34013097   275.84224792
 C      9   8   7     3.113365898470   118.28447322   176.08031302
 C     16   9   8     3.241786028713   125.73106918    73.91864023
 C     17  16   9     3.192827730611   123.03597198    89.84819897
 H     18  17  16     2.182413014130   109.77579992   352.18873893
 H     18  17  16     2.189518122571   108.95022722   232.06483931
 H     18  17  16     2.188628515606   109.59140152   112.75989505
 H     17  16   9     2.187771585965   104.95363489   209.96446509
 H     17  16   9     2.178698190678   106.65829259   325.40998211
 H     16   9   8     2.188323471116   107.13944389   310.10446471
 H     16   9   8     2.195140111995   106.17788708   194.73042347
 C     21  18  17   118.485545318844   152.31159717   304.49432118
 C     26  21  18     2.637420086825    43.90831420    90.19963809
 C     27  26  21     2.701884858226   114.10204910    77.86549497
 C     28  27  26     2.642459275653   113.69307512     0.00000000
 S     26  21  18     3.133254632508    92.96911506   199.55840203
 H     27  26  21     2.157086925086   124.44470937   259.33983369
 C     28  27  26     3.046585199164   123.07638366   179.23648543
 C     32  28  27     3.224044883195   122.66433061    43.46221958
 C     33  32  28     3.214515675456   115.39471907   268.67457266
 H     34  33  32     2.186068106163   106.87636931   301.45658536
 H     34  33  32     2.183345931820   107.14208299    57.72071421
 H     33  32  28     2.175065689819   107.59927741   148.83162480
 H     33  32  28     2.172656056348   108.24237079    29.88356669
 H     32  28  27     2.209211393943   108.58412451   280.52423752
 H     32  28  27     2.208271027572   108.71898925   164.02428426
 C     34  33  32     3.084086497040   116.08915237   179.76263807
 C     41  34  33     3.204973504488   116.68791185    84.33887851
 C     42  41  34     3.181041492482   116.33808372    88.63037483
 H     43  42  41     2.185193276834   109.84341057    19.05751279
 H     43  42  41     2.187814261210   109.19597346   258.87906577
 H     43  42  41     2.188278033848   109.24202114   139.24262485
 H     42  41  34     2.177660871676   107.92918156   326.86350651
 H     42  41  34     2.180362274072   107.27523557   209.10780155
 H     41  34  33     2.188356215617   108.69355486   205.13654870
 H     41  34  33     2.186157094770   109.00172943   323.03337370
 H      1   2   3     2.003096364189   127.26038467   180.00048160
 H      4   3   2     2.003119320729   127.20575347   180.00072186
 H     26  21  18     2.003114746538   123.51935320   339.15759891
 H     29  28  27     2.003103939531   127.20627472   179.99970052

----------------------------
SLATER BASIS SET DIM= 120
----------------------------
  0 C     2 shells
 l=0 nsto= 1
    2       1.625000000000        1.000000000000
 l=1 nsto= 1
    2       1.625000000000        1.000000000000
  1 C     2 shells
 l=0 nsto= 1
    2       1.625000000000        1.000000000000
 l=1 nsto= 1
    2       1.625000000000        1.000000000000
  2 C     2 shells
 l=0 nsto= 1
    2       1.625000000000        1.000000000000
 l=1 nsto= 1
    2       1.625000000000        1.000000000000
  3 C     2 shells
 l=0 nsto= 1
    2       1.625000000000        1.000000000000
 l=1 nsto= 1
    2       1.625000000000        1.000000000000
  4 S     2 shells
 l=0 nsto= 1
    3       1.925000000000        1.000000000000
 l=1 nsto= 1
    3       1.925000000000        1.000000000000
  5 H     1 shells
 l=0 nsto= 1
    1       1.200000000000        1.000000000000
  6 C     2 shells
 l=0 nsto= 1
    2       1.625000000000        1.000000000000
 l=1 nsto= 1
    2       1.625000000000        1.000000000000
  7 C     2 shells
 l=0 nsto= 1
    2       1.625000000000        1.000000000000
 l=1 nsto= 1
    2       1.625000000000        1.000000000000
  8 C     2 shells
 l=0 nsto= 1
    2       1.625000000000        1.000000000000
 l=1 nsto= 1
    2       1.625000000000        1.000000000000
  9 H     1 shells
 l=0 nsto= 1
    1       1.200000000000        1.000000000000
 10 H     1 shells
 l=0 nsto= 1
    1       1.200000000000        1.000000000000
 11 H     1 shells
 l=0 nsto= 1
    1       1.200000000000        1.000000000000
 12 H     1 shells
 l=0 nsto= 1
    1       1.200000000000        1.000000000000
 13 H     1 shells
 l=0 nsto= 1
    1       1.200000000000        1.000000000000
 14 H     1 shells
 l=0 nsto= 1
    1       1.200000000000        1.000000000000
 15 C     2 shells
 l=0 nsto= 1
    2       1.625000000000        1.000000000000
 l=1 nsto= 1
    2       1.625000000000        1.000000000000
 16 C     2 shells
 l=0 nsto= 1
    2       1.625000000000        1.000000000000
 l=1 nsto= 1
    2       1.625000000000        1.000000000000
 17 C     2 shells
 l=0 nsto= 1
    2       1.625000000000        1.000000000000
 l=1 nsto= 1
    2       1.625000000000        1.000000000000
 18 H     1 shells
 l=0 nsto= 1
    1       1.200000000000        1.000000000000
 19 H     1 shells
 l=0 nsto= 1
    1       1.200000000000        1.000000000000
 20 H     1 shells
 l=0 nsto= 1
    1       1.200000000000        1.000000000000
 21 H     1 shells
 l=0 nsto= 1
    1       1.200000000000        1.000000000000
 22 H     1 shells
 l=0 nsto= 1
    1       1.200000000000        1.000000000000
 23 H     1 shells
 l=0 nsto= 1
    1       1.200000000000        1.000000000000
 24 H     1 shells
 l=0 nsto= 1
    1       1.200000000000        1.000000000000
 25 C     2 shells
 l=0 nsto= 1
    2       1.625000000000        1.000000000000
 l=1 nsto= 1
    2       1.625000000000        1.000000000000
 26 C     2 shells
 l=0 nsto= 1
    2       1.625000000000        1.000000000000
 l=1 nsto= 1
    2       1.625000000000        1.000000000000
 27 C     2 shells
 l=0 nsto= 1
    2       1.625000000000        1.000000000000
 l=1 nsto= 1
    2       1.625000000000        1.000000000000
 28 C     2 shells
 l=0 nsto= 1
    2       1.625000000000        1.000000000000
 l=1 nsto= 1
    2       1.625000000000        1.000000000000
 29 S     2 shells
 l=0 nsto= 1
    3       1.925000000000        1.000000000000
 l=1 nsto= 1
    3       1.925000000000        1.000000000000
 30 H     1 shells
 l=0 nsto= 1
    1       1.200000000000        1.000000000000
 31 C     2 shells
 l=0 nsto= 1
    2       1.625000000000        1.000000000000
 l=1 nsto= 1
    2       1.625000000000        1.000000000000
 32 C     2 shells
 l=0 nsto= 1
    2       1.625000000000        1.000000000000
 l=1 nsto= 1
    2       1.625000000000        1.000000000000
 33 C     2 shells
 l=0 nsto= 1
    2       1.625000000000        1.000000000000
 l=1 nsto= 1
    2       1.625000000000        1.000000000000
 34 H     1 shells
 l=0 nsto= 1
    1       1.200000000000        1.000000000000
 35 H     1 shells
 l=0 nsto= 1
    1       1.200000000000        1.000000000000
 36 H     1 shells
 l=0 nsto= 1
    1       1.200000000000        1.000000000000
 37 H     1 shells
 l=0 nsto= 1
    1       1.200000000000        1.000000000000
 38 H     1 shells
 l=0 nsto= 1
    1       1.200000000000        1.000000000000
 39 H     1 shells
 l=0 nsto= 1
    1       1.200000000000        1.000000000000
 40 C     2 shells
 l=0 nsto= 1
    2       1.625000000000        1.000000000000
 l=1 nsto= 1
    2       1.625000000000        1.000000000000
 41 C     2 shells
 l=0 nsto= 1
    2       1.625000000000        1.000000000000
 l=1 nsto= 1
    2       1.625000000000        1.000000000000
 42 C     2 shells
 l=0 nsto= 1
    2       1.625000000000        1.000000000000
 l=1 nsto= 1
    2       1.625000000000        1.000000000000
 43 H     1 shells
 l=0 nsto= 1
    1       1.200000000000        1.000000000000
 44 H     1 shells
 l=0 nsto= 1
    1       1.200000000000        1.000000000000
 45 H     1 shells
 l=0 nsto= 1
    1       1.200000000000        1.000000000000
 46 H     1 shells
 l=0 nsto= 1
    1       1.200000000000        1.000000000000
 47 H     1 shells
 l=0 nsto= 1
    1       1.200000000000        1.000000000000
 48 H     1 shells
 l=0 nsto= 1
    1       1.200000000000        1.000000000000
 49 H     1 shells
 l=0 nsto= 1
    1       1.200000000000        1.000000000000
 50 H     1 shells
 l=0 nsto= 1
    1       1.200000000000        1.000000000000
 51 H     1 shells
 l=0 nsto= 1
    1       1.200000000000        1.000000000000
 52 H     1 shells
 l=0 nsto= 1
    1       1.200000000000        1.000000000000
 53 H     1 shells
 l=0 nsto= 1
    1       1.200000000000        1.000000000000
------------------------------------------------------------------------------
                           ORCA NDO INTEGRAL CALCULATION
------------------------------------------------------------------------------

--------------
NDO PARAMETERS
--------------

Gamma integral treatment              ... Mataga-Nishimoto
Nuclear repulsuion treatment          ... Direct (ZA*ZB/RAB)
Interaction factors:
s-s (sigma) =    1.0000
s-p (sigma) =    1.0000
s-d (sigma) =    1.0000
p-p (sigma) =    1.2670  p-p(pi) =    0.5850
p-d (sigma) =    1.0000  p-d(pi) =    1.0000
d-d (sigma) =    1.0000  d-d(pi) =    1.0000 d-d (delta) =    1.0000

fGamma parameter for Mataga-Nishimoto gamma integrals:    1.2000

--------------------------
Parameters for Element H :
--------------------------
 One-electron parameters (in eV)
  U(s)  =   -13.060000 Beta(s) =    12.000000 Neff(s) =     1.000000
 One-center electron repulsion parameters (in eV)
  G(s,s)=    12.850000
--------------------------
Parameters for Element C :
--------------------------
 One-electron parameters (in eV)
  U(s)  =   -50.870766 Beta(s) =    17.000000 Neff(s) =     2.000000
  U(p)  =   -41.599980 Beta(p) =    17.000000 Neff(p) =     2.000000 
 One-center electron repulsion parameters (in eV)
  G(s,s)=    11.110000
  G(s,p)=    11.110000 G(p,p)  =    11.110000
 Slater-Condon parameters (in eV)
 F2(p,p)=     4.5098 G1(s,p)=    6.8977
--------------------------
Parameters for Element S :
--------------------------
 One-electron parameters (in eV)
  U(s)  =   -69.509597 Beta(s) =    15.000000 Neff(s) =     2.000000
  U(p)  =   -60.725746 Beta(p) =    15.000000 Neff(p) =     4.000000 
 One-center electron repulsion parameters (in eV)
  G(s,s)=    10.090000
  G(s,p)=    10.090000 G(p,p)  =    10.090000
 Slater-Condon parameters (in eV)
 F2(p,p)=     4.5377 G1(s,p)=    3.0756

 Number of atoms                    ....   54
 Number of basis functions          ....  120

 Overlap integrals                  .... done
 One electron matrix                .... done
 Nuclear repulsion                  .... done
 Integral list                      .... done
 Electron-electron repulsion        .... done
-------------------------------------------------------------------------------
                                 ORCA SCF
-------------------------------------------------------------------------------

------------
SCF SETTINGS
------------
Hamiltonian:
 ZDO-Hamiltonian        Method          .... INDO


General Settings:
 Integral files         IntName         .... /home/mattyjones/Software/morphct/tests/output_EZ/donor_polymer/chromophores/input_orca/pair/00001-00008
 Hartree-Fock type      HFTyp           .... RHF
 Total Charge           Charge          ....    0
 Multiplicity           Mult            ....    1
 Number of Electrons    NEL             ....  124
 Basis Dimension        Dim             ....  120
 Nuclear Repulsion      ENuc            ....    605.9315986732 Eh

Convergence Acceleration:
 DIIS                   CNVDIIS         .... on
   Start iteration      DIISMaxIt       ....    12
   Startup error        DIISStart       ....  0.200000
   # of expansion vecs  DIISMaxEq       ....     5
   Bias factor          DIISBfac        ....   1.050
   Max. coefficient     DIISMaxC        ....  10.000
 Newton-Raphson         CNVNR           .... off
 SOSCF                  CNVSOSCF        .... on
   Start iteration      SOSCFMaxIt      ....   150
   Startup grad/error   SOSCFStart      ....  0.003300
 Level Shifting         CNVShift        .... on
   Level shift para.    LevelShift      ....    0.2500
   Turn off err/grad.   ShiftErr        ....    0.0010
 Zerner damping         CNVZerner       .... off
 Static damping         CNVDamp         .... on
   Fraction old density DampFac         ....    0.7000
   Max. Damping (<1)    DampMax         ....    0.9800
   Min. Damping (>=0)   DampMin         ....    0.0000
   Turn off err/grad.   DampErr         ....    0.1000
 Fernandez-Rico         CNVRico         .... off

SCF Procedure:
 Maximum # iterations   MaxIter         ....   125
 SCF integral mode      SCFMode         .... Conventional
 Integral Buffer length BufferLength    .... 1048576
 Integral index format  IndFormat       ....     0
 Integral value format  ValFormat       ....     0
 Integral Storage       Thresh          ....  1.000e-08 Eh

Convergence Tolerance:
 Convergence Check Mode ConvCheckMode   .... Total+1el-Energy
 Convergence forced     ConvForced      .... 0
 Energy Change          TolE            ....  1.000e-06 Eh
 1-El. energy change                    ....  1.000e-03 Eh
 Orbital Gradient       TolG            ....  5.000e-05
 Orbital Rotation angle TolX            ....  5.000e-05
 DIIS Error             TolErr          ....  1.000e-06


Diagonalization of the overlap matrix:
Smallest eigenvalue                        ... 1.698e-01
Time for diagonalization                   ...    0.003 sec
Threshold for overlap eigenvalues          ... 1.000e-08
Number of eigenvalues below threshold      ... 0
Time for construction of square roots      ...    0.000 sec
Total time needed                          ...    0.003 sec

-------------------------------
INITIAL GUESS: EXTENDED HUECKEL
-------------------------------
EHT matrix was read from disk
EHT matrix was diagonalized
Initial density was built
                      ------------------
                      INITIAL GUESS DONE
                      ------------------

 InCore treatment chosen:
   Memory dedicated               ...    1024 MB
   Memory needed                  ...      0 MB
   Number of tiny    integrals    ...       0
   Number of small   integrals    ...       0
   Number of regular integrals    ...    7392

--------------
SCF ITERATIONS
--------------
ITER       Energy         Delta-E        Max-DP      RMS-DP      [F,P]     Damp
  0    -22.9362288531   0.000000000000 0.04113352  0.00144354  0.0910001 0.7000
  1    -22.9778798096  -0.041650956493 0.03848227  0.00135845  0.0650631 0.7000
                               ***Turning on DIIS***
  2    -23.0087089483  -0.030829138692 0.09654374  0.00348352  0.0426050 0.0000
  3    -23.0895931201  -0.080884171854 0.01586744  0.00071838  0.0191030 0.0000
  4    -23.0743954075   0.015197712639 0.01018662  0.00049123  0.0064148 0.0000
  5    -23.0912095634  -0.016814155913 0.00710513  0.00033277  0.0036958 0.0000
  6    -23.0938522002  -0.002642636776 0.00527702  0.00023632  0.0019681 0.0000
                      *** Initiating the SOSCF procedure ***
                           *** Shutting down DIIS ***
                      *** Re-Reading the Fockian *** 
                      *** Removing any level shift *** 
ITER      Energy       Delta-E        Grad      Rot      Max-DP    RMS-DP
  7    -23.08973254   0.0041196640  0.003014  0.003014  0.003143  0.000133
  8    -23.08787636   0.0018561752  0.000801  0.002196  0.001566  0.000062
  9    -23.08789094  -0.0000145821  0.000358  0.002170  0.001752  0.000065
 10    -23.08789629  -0.0000053453  0.000029  0.000053  0.000103  0.000003
                 **** Energy Check signals convergence ****
              ***Rediagonalizing the Fockian in SOSCF/NRSCF***

               *****************************************************
               *                     SUCCESS                       *
               *           SCF CONVERGED AFTER  11 CYCLES          *
               *****************************************************


----------------
TOTAL SCF ENERGY
----------------

Total Energy       :          -23.08789633 Eh            -628.25360 eV

Components:
Nuclear Repulsion  :          605.93159867 Eh           16488.23705 eV
Electronic Energy  :         -629.01949501 Eh          -17116.49064 eV
One Electron Energy:        -1167.80631083 Eh          -31777.62526 eV
Two Electron Energy:          538.78681582 Eh           14661.13462 eV


---------------
SCF CONVERGENCE
---------------

  Last Energy change         ...   -4.3677e-08  Tolerance :   1.0000e-06
  Last MAX-Density change    ...    3.3461e-05  Tolerance :   1.0000e-05
  Last RMS-Density change    ...    1.0580e-06  Tolerance :   1.0000e-06
  Last Orbital Gradient      ...    6.7364e-06  Tolerance :   5.0000e-05
  Last Orbital Rotation      ...    1.9198e-05  Tolerance :   5.0000e-05

             **** THE GBW FILE WAS UPDATED (/home/mattyjones/Software/morphct/tests/output_EZ/donor_polymer/chromophores/input_orca/pair/00001-00008.gbw) ****
             **** DENSITY FILE WAS UPDATED (/home/mattyjones/Software/morphct/tests/output_EZ/donor_polymer/chromophores/input_orca/pair/00001-00008.scfp.tmp) ****
             **** ENERGY FILE WAS UPDATED (/home/mattyjones/Software/morphct/tests/output_EZ/donor_polymer/chromophores/input_orca/pair/00001-00008.en.tmp) ****
----------------
ORBITAL ENERGIES
----------------

  NO   OCC          E(Eh)            E(eV) 
   0   2.0000      -1.556656       -42.3588 
   1   2.0000      -1.554808       -42.3085 
   2   2.0000      -1.397416       -38.0256 
   3   2.0000      -1.371200       -37.3123 
   4   2.0000      -1.289154       -35.0797 
   5   2.0000      -1.273517       -34.6542 
   6   2.0000      -1.197457       -32.5845 
   7   2.0000      -1.182264       -32.1710 
   8   2.0000      -1.110756       -30.2252 
   9   2.0000      -1.106803       -30.1176 
  10   2.0000      -1.038901       -28.2699 
  11   2.0000      -1.030628       -28.0448 
  12   2.0000      -0.980343       -26.6765 
  13   2.0000      -0.970247       -26.4018 
  14   2.0000      -0.915242       -24.9050 
  15   2.0000      -0.912015       -24.8172 
  16   2.0000      -0.847975       -23.0746 
  17   2.0000      -0.840600       -22.8739 
  18   2.0000      -0.832200       -22.6453 
  19   2.0000      -0.826348       -22.4861 
  20   2.0000      -0.774080       -21.0638 
  21   2.0000      -0.768160       -20.9027 
  22   2.0000      -0.737283       -20.0625 
  23   2.0000      -0.719289       -19.5729 
  24   2.0000      -0.688705       -18.7406 
  25   2.0000      -0.688354       -18.7311 
  26   2.0000      -0.668384       -18.1876 
  27   2.0000      -0.660692       -17.9783 
  28   2.0000      -0.650394       -17.6981 
  29   2.0000      -0.644006       -17.5243 
  30   2.0000      -0.624582       -16.9958 
  31   2.0000      -0.612693       -16.6722 
  32   2.0000      -0.586796       -15.9675 
  33   2.0000      -0.583810       -15.8863 
  34   2.0000      -0.576879       -15.6977 
  35   2.0000      -0.575257       -15.6536 
  36   2.0000      -0.573260       -15.5992 
  37   2.0000      -0.571034       -15.5386 
  38   2.0000      -0.555540       -15.1170 
  39   2.0000      -0.554721       -15.0947 
  40   2.0000      -0.541816       -14.7436 
  41   2.0000      -0.531216       -14.4551 
  42   2.0000      -0.521872       -14.2009 
  43   2.0000      -0.515380       -14.0242 
  44   2.0000      -0.508071       -13.8253 
  45   2.0000      -0.503974       -13.7138 
  46   2.0000      -0.496250       -13.5037 
  47   2.0000      -0.495590       -13.4857 
  48   2.0000      -0.488922       -13.3042 
  49   2.0000      -0.488625       -13.2962 
  50   2.0000      -0.474758       -12.9188 
  51   2.0000      -0.472467       -12.8565 
  52   2.0000      -0.471787       -12.8380 
  53   2.0000      -0.460712       -12.5366 
  54   2.0000      -0.449533       -12.2324 
  55   2.0000      -0.445251       -12.1159 
  56   2.0000      -0.441077       -12.0023 
  57   2.0000      -0.434018       -11.8102 
  58   2.0000      -0.358942        -9.7673 
  59   2.0000      -0.357001        -9.7145 
  60   2.0000      -0.305870        -8.3231 
  61   2.0000      -0.304761        -8.2930 
  62   0.0000       0.005195         0.1414 
  63   0.0000       0.007772         0.2115 
  64   0.0000       0.038165         1.0385 
  65   0.0000       0.069350         1.8871 
  66   0.0000       0.071354         1.9416 
  67   0.0000       0.075753         2.0613 
  68   0.0000       0.075840         2.0637 
  69   0.0000       0.088006         2.3948 
  70   0.0000       0.097440         2.6515 
  71   0.0000       0.103603         2.8192 
  72   0.0000       0.106301         2.8926 
  73   0.0000       0.107550         2.9266 
  74   0.0000       0.122584         3.3357 
  75   0.0000       0.124476         3.3872 
  76   0.0000       0.140104         3.8124 
  77   0.0000       0.141302         3.8450 
  78   0.0000       0.157314         4.2807 
  79   0.0000       0.158792         4.3209 
  80   0.0000       0.163830         4.4580 
  81   0.0000       0.166283         4.5248 
  82   0.0000       0.172535         4.6949 
  83   0.0000       0.173544         4.7224 
  84   0.0000       0.201626         5.4865 
  85   0.0000       0.204445         5.5632 
  86   0.0000       0.226706         6.1690 
  87   0.0000       0.233099         6.3430 
  88   0.0000       0.233539         6.3549 
  89   0.0000       0.234084         6.3698 
  90   0.0000       0.236215         6.4277 
  91   0.0000       0.236981         6.4486 
  92   0.0000       0.237108         6.4520 
  93   0.0000       0.239129         6.5070 
  94   0.0000       0.239776         6.5246 
  95   0.0000       0.239800         6.5253 
  96   0.0000       0.242420         6.5966 
  97   0.0000       0.242429         6.5968 
  98   0.0000       0.243302         6.6206 
  99   0.0000       0.243692         6.6312 
 100   0.0000       0.245079         6.6689 
 101   0.0000       0.245864         6.6903 
 102   0.0000       0.253870         6.9081 
 103   0.0000       0.257653         7.0111 
 104   0.0000       0.264370         7.1939 
 105   0.0000       0.267068         7.2673 
 106   0.0000       0.272109         7.4045 
 107   0.0000       0.277690         7.5563 
 108   0.0000       0.297661         8.0998 
 109   0.0000       0.302861         8.2413 
 110   0.0000       0.308267         8.3884 
 111   0.0000       0.310142         8.4394 
 112   0.0000       0.341708         9.2984 
 113   0.0000       0.345334         9.3970 
 114   0.0000       0.353983         9.6324 
 115   0.0000       0.361902         9.8478 
 116   0.0000       0.400532        10.8990 
 117   0.0000       0.412069        11.2130 
 118   0.0000       0.430525        11.7152 
 119   0.0000       0.437455        11.9037 
-------
TIMINGS
-------

Total SCF time: 0 days 0 hours 0 min 0 sec 

Total time                  ....       0.118 sec
Sum of individual times     ....       0.098 sec  ( 82.9%)

Fock matrix formation       ....       0.038 sec  ( 32.6%)
Diagonalization             ....       0.025 sec  ( 21.6%)
Density matrix formation    ....       0.003 sec  (  2.5%)
Population analysis         ....       0.000 sec  (  0.0%)
Initial guess               ....       0.008 sec  (  6.5%)
Orbital Transformation      ....       0.000 sec  (  0.0%)
Orbital Orthonormalization  ....       0.000 sec  (  0.0%)
DIIS solution               ....       0.005 sec  (  3.8%)
SOSCF solution              ....       0.019 sec  ( 15.8%)

-------------------------   --------------------
FINAL SINGLE POINT ENERGY       -23.087896332076
-------------------------   --------------------


                            ***************************************
                            *     ORCA property calculations      *
                            ***************************************

                                    ---------------------
                                    Active property flags
                                    ---------------------
   (+) Dipole Moment


------------------------------------------------------------------------------
                       ORCA ELECTRIC PROPERTIES CALCULATION
------------------------------------------------------------------------------

Dipole Moment Calculation                       ... on
Quadrupole Moment Calculation                   ... off
Polarizability Calculation                      ... off
GBWName                                         ... /home/mattyjones/Software/morphct/tests/output_EZ/donor_polymer/chromophores/input_orca/pair/00001-00008.gbw
Electron density file                           ... /home/mattyjones/Software/morphct/tests/output_EZ/donor_polymer/chromophores/input_orca/pair/00001-00008.scfp.tmp
The origin for moment calculation is the CENTER OF MASS  = (-0.188051,  0.160026 -0.579498)

-------------
DIPOLE MOMENT
-------------
                                X             Y             Z
Electronic contribution:    -20.50274      -3.97636     -64.07702
Nuclear contribution   :     10.18939      -8.25736      32.24380
                        -----------------------------------------
Total Dipole Moment    :    -10.31335     -12.23372     -31.83322
                        -----------------------------------------
Magnitude (a.u.)       :     35.62840
Magnitude (Debye)      :     90.56019


Timings for individual modules:

Sum of individual times         ...        0.158 sec (=   0.003 min)
STO integral calculation        ...        0.030 sec (=   0.001 min)  19.3 %
SCF iterations                  ...        0.128 sec (=   0.002 min)  80.7 %
                             ****ORCA TERMINATED NORMALLY****
TOTAL RUN TIME: 0 days 0 hours 0 minutes 0 seconds 444 msec

