
                                 *****************
                                 * O   R   C   A *
                                 *****************

           --- An Ab Initio, DFT and Semiempirical electronic structure package ---

                  #######################################################
                  #                        -***-                        #
                  #  Department of molecular theory and spectroscopy    #
                  #              Directorship: Frank Neese              #
                  # Max Planck Institute for Chemical Energy Conversion #
                  #                  D-45470 Muelheim/Ruhr              #
                  #                       Germany                       #
                  #                                                     #
                  #                  All rights reserved                #
                  #                        -***-                        #
                  #######################################################


                         Program Version 3.0.3 - RELEASE   -


 With contributions from (in alphabetic order):
   Ute Becker             : Parallelization
   Dmytro Bykov           : SCF Hessian
   Dmitry Ganyushin       : Spin-Orbit,Spin-Spin,Magnetic field MRCI
   Andreas Hansen         : Spin unrestricted coupled pair/coupled cluster methods
   Dimitrios Liakos       : Extrapolation schemes; parallel MDCI
   Robert Izsak           : Overlap fitted RIJCOSX, COSX-SCS-MP3
   Christian Kollmar      : KDIIS, OOCD, Brueckner-CCSD(T), CCSD density
   Simone Kossmann        : Meta GGA functionals, TD-DFT gradient, OOMP2, MP2 Hessian
   Taras Petrenko         : DFT Hessian,TD-DFT gradient, ASA and ECA modules, normal mode analysis, Resonance Raman, ABS, FL, XAS/XES, NRVS
   Christoph Reimann      : Effective Core Potentials
   Michael Roemelt        : Restricted open shell CIS
   Christoph Riplinger    : Improved optimizer, TS searches, QM/MM, DLPNO-CCSD
   Barbara Sandhoefer     : DKH picture change effects
   Igor Schapiro          : Molecular dynamics
   Kantharuban Sivalingam : CASSCF convergence, NEVPT2
   Boris Wezisla          : Elementary symmetry handling
   Frank Wennmohs         : Technical directorship


 We gratefully acknowledge several colleagues who have allowed us to
 interface, adapt or use parts of their codes:
   Stefan Grimme, W. Hujo, H. Kruse, T. Risthaus : VdW corrections, initial TS optimization,
                                                   DFT functionals, gCP
   Ed Valeev                                     : LibInt (2-el integral package), F12 methods
   Garnet Chan, S. Sharma, R. Olivares           : DMRG
   Ulf Ekstrom                                   : XCFun DFT Library
   Mihaly Kallay                                 : mrcc  (arbitrary order and MRCC methods)
   Andreas Klamt, Michael Diedenhofen            : otool_cosmo (COSMO solvation model)
   Frank Weinhold                                : gennbo (NPA and NBO analysis)
   Christopher J. Cramer and Donald G. Truhlar   : smd solvation model


 Your calculation uses the libint2 library for the computation of 2-el integrals
 For citations please refer to: http://libint.valeyev.net

 This ORCA versions uses:
   CBLAS   interface :  Fast vector & matrix operations
   LAPACKE interface :  Fast linear algebra routines
   SCALAPACK package :  Parallel linear algebra routines


leaving
================================================================================
                                        WARNINGS
                       Please study these warnings very carefully!
================================================================================
Now building the actual basis set

WARNING: Direct SCF is incompatible with Method<>HF and Method<>DFT
  ===> : conventional SCF is chosen

WARNING: The NDO methods need Guess=HUECKEL or Guess=HCORE or Guess=MOREAD
  ===> : Guess is set to Hueckel

WARNING: The NDO methods need %rel::SOCType==1
  ===> : %rel::SOCType is set to 1

WARNING: The NDO methods cannot have frozencore=1
  ===> : %method FrozenCore=0 end


INFO   : the flag for use of LIBINT has been found!

================================================================================
                                       INPUT FILE
================================================================================
NAME = /Users/mattyjones/GoogleDrive/Boise/Code/MorphCT/tests/output_EZ/donor_polymer/chromophores/input_orca/pair/00004-00023.inp
|  1> # ================================================================
|  2> # Orca input file made by Matty Jones
|  3> # ================================================================
|  4> ! ZINDO/S 
|  5> ! NOPOP
|  6> ! NOMOPRINT
|  7> * xyz 0   1
|  8>  C  23.24216  3.96206  -5.47626
|  9>  C  22.80751  3.09347  -6.47852
| 10>  C  23.01731  1.71022  -6.18377
| 11>  C  23.62068  1.48543  -4.94251
| 12>  S  23.85945  2.98881  -4.28428
| 13>  H  23.04630  3.22421  -7.63786
| 14>  C  22.54048  0.67238  -7.33223
| 15>  C  21.50382  -0.69145  -7.27246
| 16>  C  19.86219  -0.32014  -7.57225
| 17>  H  19.48619  0.19925  -6.60662
| 18>  H  19.86158  0.46149  -8.42786
| 19>  H  21.85123  -1.44135  -8.06972
| 20>  H  21.58281  -1.15613  -6.22526
| 21>  H  23.52714  0.20886  -7.76981
| 22>  H  22.06871  1.30379  -8.20117
| 23>  C  18.78038  -1.48612  -7.96617
| 24>  C  18.51047  -1.68504  -9.63570
| 25>  C  17.32716  -2.80546  -10.07078
| 26>  H  16.28029  -2.33938  -9.90972
| 27>  H  17.43686  -3.75452  -9.41905
| 28>  H  17.45823  -3.08278  -11.18715
| 29>  H  18.19976  -0.66258  -10.06613
| 30>  H  19.50424  -2.02034  -10.11145
| 31>  H  19.13779  -2.50507  -7.55753
| 32>  H  17.75750  -1.22834  -7.49279
| 33>  C  -16.50789  -0.35683  6.02449
| 34>  C  -17.73377  -0.87299  5.60176
| 35>  C  -18.86355  -0.33492  6.29338
| 36>  C  -18.52809  0.61088  7.26715
| 37>  S  -16.87455  0.72995  7.22180
| 38>  H  -18.08375  -1.09438  4.47518
| 39>  C  -20.36792  -0.81701  5.91440
| 40>  C  -21.60788  -1.23358  7.03328
| 41>  C  -21.41241  -1.29925  8.71522
| 42>  H  -22.28098  -1.92525  9.15171
| 43>  H  -20.41228  -1.82506  8.94741
| 44>  H  -22.47689  -0.50446  6.82465
| 45>  H  -21.94266  -2.30110  6.73311
| 46>  H  -20.26154  -1.77748  5.25657
| 47>  H  -20.84958  0.01483  5.24626
| 48>  C  -21.43976  0.19452  9.35169
| 49>  C  -22.89306  0.95440  9.72378
| 50>  C  -23.37461  2.04341  8.52483
| 51>  H  -24.52792  2.04599  8.43757
| 52>  H  -22.91685  1.73146  7.50841
| 53>  H  -23.00938  3.10829  8.79049
| 54>  H  -23.66808  0.11020  9.80496
| 55>  H  -22.77324  1.47825  10.73689
| 56>  H  -20.74853  0.25628  10.27112
| 57>  H  -21.03952  0.82795  8.47127
| 58>  H  23.18886  5.02072  -5.47694
| 59>  H  23.87268  0.54998  -4.51234
| 60>  H  -15.54540  -0.60687  5.65748
| 61>  H  -19.19171  1.14079  7.90149
| 62> *
| 63> 
| 64>                          ****END OF INPUT****
================================================================================

                       ****************************
                       * Single Point Calculation *
                       ****************************

---------------------------------
CARTESIAN COORDINATES (ANGSTROEM)
---------------------------------
  C     23.242160    3.962060   -5.476260
  C     22.807510    3.093470   -6.478520
  C     23.017310    1.710220   -6.183770
  C     23.620680    1.485430   -4.942510
  S     23.859450    2.988810   -4.284280
  H     23.046300    3.224210   -7.637860
  C     22.540480    0.672380   -7.332230
  C     21.503820   -0.691450   -7.272460
  C     19.862190   -0.320140   -7.572250
  H     19.486190    0.199250   -6.606620
  H     19.861580    0.461490   -8.427860
  H     21.851230   -1.441350   -8.069720
  H     21.582810   -1.156130   -6.225260
  H     23.527140    0.208860   -7.769810
  H     22.068710    1.303790   -8.201170
  C     18.780380   -1.486120   -7.966170
  C     18.510470   -1.685040   -9.635700
  C     17.327160   -2.805460  -10.070780
  H     16.280290   -2.339380   -9.909720
  H     17.436860   -3.754520   -9.419050
  H     17.458230   -3.082780  -11.187150
  H     18.199760   -0.662580  -10.066130
  H     19.504240   -2.020340  -10.111450
  H     19.137790   -2.505070   -7.557530
  H     17.757500   -1.228340   -7.492790
  C    -16.507890   -0.356830    6.024490
  C    -17.733770   -0.872990    5.601760
  C    -18.863550   -0.334920    6.293380
  C    -18.528090    0.610880    7.267150
  S    -16.874550    0.729950    7.221800
  H    -18.083750   -1.094380    4.475180
  C    -20.367920   -0.817010    5.914400
  C    -21.607880   -1.233580    7.033280
  C    -21.412410   -1.299250    8.715220
  H    -22.280980   -1.925250    9.151710
  H    -20.412280   -1.825060    8.947410
  H    -22.476890   -0.504460    6.824650
  H    -21.942660   -2.301100    6.733110
  H    -20.261540   -1.777480    5.256570
  H    -20.849580    0.014830    5.246260
  C    -21.439760    0.194520    9.351690
  C    -22.893060    0.954400    9.723780
  C    -23.374610    2.043410    8.524830
  H    -24.527920    2.045990    8.437570
  H    -22.916850    1.731460    7.508410
  H    -23.009380    3.108290    8.790490
  H    -23.668080    0.110200    9.804960
  H    -22.773240    1.478250   10.736890
  H    -20.748530    0.256280   10.271120
  H    -21.039520    0.827950    8.471270
  H     23.188860    5.020720   -5.476940
  H     23.872680    0.549980   -4.512340
  H    -15.545400   -0.606870    5.657480
  H    -19.191710    1.140790    7.901490

----------------------------
CARTESIAN COORDINATES (A.U.)
----------------------------
  NO LB      ZA    FRAG    MASS        X           Y           Z
   0 C     4.0000    0    12.011         43.921317160779154          7.487208326164034        -10.348631638147593
   1 C     4.0000    0    12.011         43.099947696670284          5.845811103501374        -12.242628553131507
   2 C     4.0000    0    12.011         43.496412239566965          3.231847428754803        -11.685631775158217
   3 C     4.0000    0    12.011         44.636616296991029          2.807055891110645         -9.339990314167126
   4 S     6.0000    0    32.060         45.087826205987405          5.648032366325176         -8.096115881036139
   5 H     1.0000    0     1.008         43.551195400189343          6.092873898250239        -14.433463649231770
   6 C     4.0000    0    12.011         42.595334127129291          1.270614057925971        -13.855906650921419
   7 C     4.0000    0    12.011         40.636330633138492         -1.306651135299850        -13.742957719896946
   8 C     4.0000    0    12.011         37.534099519909340         -0.604976924513549        -14.309478717585199
   9 H     1.0000    0     1.008         36.823562493554959          0.376527932183809        -12.484702470886820
  10 H     1.0000    0     1.008         37.532946786967656          0.872089713543318        -15.926347295029561
  11 H     1.0000    0     1.008         41.292840389324077         -2.723756763127396        -15.249560777427003
  12 H     1.0000    0     1.008         40.785600100456925         -2.184769075210377        -11.764036512454611
  13 H     1.0000    0     1.008         44.459851314424036          0.394688200330793        -14.682813012602679
  14 H     1.0000    0     1.008         41.703818028929263          2.463806036145189        -15.497965277730950
  15 C     4.0000    0    12.011         35.489774890972001         -2.808359802143051        -15.053879636259458
  16 C     4.0000    0    12.011         34.979718910165317         -3.184264124702666        -18.208834108625005
  17 C     4.0000    0    12.011         32.743587078634953         -5.301551079670714        -19.031016154971461
  18 H     1.0000    0     1.008         30.765289480816815         -4.420787523172697        -18.726656863842106
  19 H     1.0000    0     1.008         32.950890035526115         -7.095014564330017        -17.799424941710967
  20 H     1.0000    0     1.008         32.991273483008015         -5.825609931129756        -21.140649719097134
  21 H     1.0000    0     1.008         34.392562103094640         -1.252094741813543        -19.022228928448726
  22 H     1.0000    0     1.008         36.857672050272235         -3.817889297406462        -19.107871316838040
  23 H     1.0000    0     1.008         36.165181908496791         -4.733896246302110        -14.281661948893877
  24 H     1.0000    0     1.008         33.556811823106628         -2.321226199340830        -14.159321078983815
  25 C     4.0000    0    12.011        -31.195391148897290         -0.674310976367120         11.384636196547241
  26 C     4.0000    0    12.011        -33.511968621948675         -1.649712017651914         10.585792267954711
  27 C     4.0000    0    12.011        -35.646943413530224         -0.632907076772906         11.892764656697327
  28 C     4.0000    0    12.011        -35.013015884645000          1.154395900689814         13.732923274125824
  29 S     6.0000    0    32.060        -31.888278133160856          1.379405591455818         13.647224193952495
  30 H     1.0000    0     1.008        -34.173334974298434         -2.068078486440739          8.456864600001706
  31 C     4.0000    0    12.011        -38.489790717617346         -1.543925148675002         11.176596246463850
  32 C     4.0000    0    12.011        -40.832975534634336         -2.331128364282578         13.290973023185662
  33 C     4.0000    0    12.011        -40.463590767236752         -2.455226679497186         16.469378996873171
  34 H     1.0000    0     1.008        -42.104950195376730         -3.638195239331889         17.294225557068458
  35 H     1.0000    0     1.008        -38.573618968918083         -3.448863577974319         16.908154507908346
  36 H     1.0000    0     1.008        -42.475166442273242         -0.953291245517915         12.896719459865670
  37 H     1.0000    0     1.008        -41.465618049748493         -4.348448806766192         12.723733929566519
  38 H     1.0000    0     1.008        -38.288761651490795         -3.358950408522346          9.933477703786433
  39 H     1.0000    0     1.008        -39.399996207281852          0.028024638566052          9.913994627345707
  40 C     4.0000    0    12.011        -40.515274776999497          0.367589527570362         17.672132989330031
  41 C     4.0000    0    12.011        -43.261613767427249          1.803554622214443         18.375281186500789
  42 C     4.0000    0    12.011        -44.171611387217027          3.861485279316025         16.109594038235905
  43 H     1.0000    0     1.008        -46.351051434729747          3.866360772741542         15.944696535789934
  44 H     1.0000    0     1.008        -43.306570352153237          3.271985211839290         14.188838601195664
  45 H     1.0000    0     1.008        -43.481426711324971          5.873816844806088         16.611618682973425
  46 H     1.0000    0     1.008        -44.726189315738900          0.208247819958122         18.528689154052515
  47 H     1.0000    0     1.008        -43.035186782060805          2.793487657469091         20.289781630037748
  48 H     1.0000    0     1.008        -39.209039381449102          0.484299013601338         19.409603888641247
  49 H     1.0000    0     1.008        -39.758930789158853          1.564598752580100         16.008380306503081
  50 H     1.0000    0     1.008         43.820594757841150          9.487785795101106        -10.349916651918660
  51 H     1.0000    0     1.008         45.112827282739183          1.039311579134010         -8.527086823138221
  52 H     1.0000    0     1.008        -29.376548642259426         -1.146818098892790         10.691087808136801
  53 H     1.0000    0     1.008        -36.267075941637827          2.155780676316025         14.931652149917431

--------------------------------
INTERNAL COORDINATES (ANGSTROEM)
--------------------------------
 C      0   0   0   0.000000     0.000     0.000
 C      1   0   0   1.395670     0.000     0.000
 C      2   1   0   1.429781   114.101     0.000
 C      3   2   1   1.398325   113.693     0.000
 S      1   2   3   1.658035   105.480     0.000
 H      2   1   3   1.190875   124.634   227.277
 C      3   2   1   1.619703   115.502   180.675
 C      7   3   2   1.714138   131.539   233.412
 C      8   7   3   1.709589   113.691    90.118
 H      9   8   7   1.159130   105.232   285.549
 H      9   8   7   1.158885   106.049    40.102
 H      8   7   3   1.148332   108.204   210.207
 H      8   7   3   1.148388   108.188   329.792
 H      7   3   2   1.174660   105.646   111.045
 H      7   3   2   1.173159   107.380   358.334
 C      9   8   7   1.638595   121.438   163.077
 C     16   9   8   1.702866   115.053   264.216
 C     17  16   9   1.686671   116.212   183.942
 H     18  17  16   1.157198   109.343    77.278
 H     18  17  16   1.156504   109.464   317.021
 H     18  17  16   1.157743   109.173   197.002
 H     17  16   9   1.152057   107.781   304.852
 H     17  16   9   1.151670   107.593    63.063
 H     16   9   8   1.154551   109.788    25.005
 H     16   9   8   1.156210   109.087   144.398
 C     19  18  17  36.508825   153.519   243.924
 C     26  19  18   1.395673   129.535   264.372
 C     27  26  19   1.429776   114.102   194.599
 C     28  27  26   1.398320   113.693     0.000
 S     26  19  18   1.658035   123.324   101.273
 H     27  26  19   1.200284   127.489   332.992
 C     28  27  26   1.624551   120.478   179.397
 C     32  28  27   1.721315   125.962   135.169
 C     33  32  28   1.694533   124.853   355.826
 H     34  33  32   1.156206   108.001   198.304
 H     34  33  32   1.153537   108.510   316.539
 H     33  32  28   1.153395   105.794   120.259
 H     33  32  28   1.158352   105.235   235.062
 H     32  28  27   1.168999   106.907    13.787
 H     32  28  27   1.170626   107.655   258.579
 C     34  33  32   1.623943   110.575    78.243
 C     41  34  33   1.681651   121.126    84.326
 C     42  41  34   1.689768   112.365   261.074
 H     43  42  41   1.156609   109.824   145.506
 H     43  42  41   1.157569   109.673    25.511
 H     43  42  41   1.156693   109.900   265.751
 H     42  41  34   1.148878   105.461    20.130
 H     42  41  34   1.146808   108.155   137.905
 H     41  34  33   1.151940   110.612   212.911
 H     41  34  33   1.156099   101.518   331.653
 H      1   2   3   1.060001   127.260   180.001
 H      4   3   2   1.060008   127.206   180.000
 H     26  19  18   1.060002    11.651   347.735
 H     29  28  27   1.059992   127.206   180.000

---------------------------
INTERNAL COORDINATES (A.U.)
---------------------------
 C      0   0   0   0.000000     0.000     0.000
 C      1   0   0   2.637434     0.000     0.000
 C      2   1   0   2.701895   114.101     0.000
 C      3   2   1   2.642451   113.693     0.000
 S      1   2   3   3.133231   105.480     0.000
 H      2   1   3   2.250427   124.634   227.277
 C      3   2   1   3.060796   115.502   180.675
 C      7   3   2   3.239251   131.539   233.412
 C      8   7   3   3.230655   113.691    90.118
 H      9   8   7   2.190439   105.232   285.549
 H      9   8   7   2.189975   106.049    40.102
 H      8   7   3   2.170034   108.204   210.207
 H      8   7   3   2.170139   108.188   329.792
 H      7   3   2   2.219785   105.646   111.045
 H      7   3   2   2.216949   107.380   358.334
 C      9   8   7   3.096497   121.438   163.077
 C     16   9   8   3.217949   115.053   264.216
 C     17  16   9   3.187346   116.212   183.942
 H     18  17  16   2.186788   109.343    77.278
 H     18  17  16   2.185475   109.464   317.021
 H     18  17  16   2.187816   109.173   197.002
 H     17  16   9   2.177072   107.781   304.852
 H     17  16   9   2.176340   107.593    63.063
 H     16   9   8   2.181785   109.788    25.005
 H     16   9   8   2.184921   109.087   144.398
 C     19  18  17  68.991681   153.519   243.924
 C     26  19  18   2.637440   129.535   264.372
 C     27  26  19   2.701886   114.102   194.599
 C     28  27  26   2.642442   113.693     0.000
 S     26  19  18   3.133233   123.324   101.273
 H     27  26  19   2.268208   127.489   332.992
 C     28  27  26   3.069956   120.478   179.397
 C     32  28  27   3.252813   125.962   135.169
 C     33  32  28   3.202204   124.853   355.826
 H     34  33  32   2.184914   108.001   198.304
 H     34  33  32   2.179870   108.510   316.539
 H     33  32  28   2.179601   105.794   120.259
 H     33  32  28   2.188967   105.235   235.062
 H     32  28  27   2.209089   106.907    13.787
 H     32  28  27   2.212163   107.655   258.579
 C     34  33  32   3.068808   110.575    78.243
 C     41  34  33   3.177859   121.126    84.326
 C     42  41  34   3.193198   112.365   261.074
 H     43  42  41   2.185675   109.824   145.506
 H     43  42  41   2.187489   109.673    25.511
 H     43  42  41   2.185832   109.900   265.751
 H     42  41  34   2.171064   105.461    20.130
 H     42  41  34   2.167152   108.155   137.905
 H     41  34  33   2.176850   110.612   212.911
 H     41  34  33   2.184711   101.518   331.653
 H      1   2   3   2.003112   127.260   180.001
 H      4   3   2   2.003125   127.206   180.000
 H     26  19  18   2.003113    11.651   347.735
 H     29  28  27   2.003095   127.206   180.000

----------------------------
SLATER BASIS SET DIM= 120
----------------------------
  0 C     2 shells
 l=0 nsto= 1
    2       1.625000000000        1.000000000000
 l=1 nsto= 1
    2       1.625000000000        1.000000000000
  1 C     2 shells
 l=0 nsto= 1
    2       1.625000000000        1.000000000000
 l=1 nsto= 1
    2       1.625000000000        1.000000000000
  2 C     2 shells
 l=0 nsto= 1
    2       1.625000000000        1.000000000000
 l=1 nsto= 1
    2       1.625000000000        1.000000000000
  3 C     2 shells
 l=0 nsto= 1
    2       1.625000000000        1.000000000000
 l=1 nsto= 1
    2       1.625000000000        1.000000000000
  4 S     2 shells
 l=0 nsto= 1
    3       1.925000000000        1.000000000000
 l=1 nsto= 1
    3       1.925000000000        1.000000000000
  5 H     1 shells
 l=0 nsto= 1
    1       1.200000000000        1.000000000000
  6 C     2 shells
 l=0 nsto= 1
    2       1.625000000000        1.000000000000
 l=1 nsto= 1
    2       1.625000000000        1.000000000000
  7 C     2 shells
 l=0 nsto= 1
    2       1.625000000000        1.000000000000
 l=1 nsto= 1
    2       1.625000000000        1.000000000000
  8 C     2 shells
 l=0 nsto= 1
    2       1.625000000000        1.000000000000
 l=1 nsto= 1
    2       1.625000000000        1.000000000000
  9 H     1 shells
 l=0 nsto= 1
    1       1.200000000000        1.000000000000
 10 H     1 shells
 l=0 nsto= 1
    1       1.200000000000        1.000000000000
 11 H     1 shells
 l=0 nsto= 1
    1       1.200000000000        1.000000000000
 12 H     1 shells
 l=0 nsto= 1
    1       1.200000000000        1.000000000000
 13 H     1 shells
 l=0 nsto= 1
    1       1.200000000000        1.000000000000
 14 H     1 shells
 l=0 nsto= 1
    1       1.200000000000        1.000000000000
 15 C     2 shells
 l=0 nsto= 1
    2       1.625000000000        1.000000000000
 l=1 nsto= 1
    2       1.625000000000        1.000000000000
 16 C     2 shells
 l=0 nsto= 1
    2       1.625000000000        1.000000000000
 l=1 nsto= 1
    2       1.625000000000        1.000000000000
 17 C     2 shells
 l=0 nsto= 1
    2       1.625000000000        1.000000000000
 l=1 nsto= 1
    2       1.625000000000        1.000000000000
 18 H     1 shells
 l=0 nsto= 1
    1       1.200000000000        1.000000000000
 19 H     1 shells
 l=0 nsto= 1
    1       1.200000000000        1.000000000000
 20 H     1 shells
 l=0 nsto= 1
    1       1.200000000000        1.000000000000
 21 H     1 shells
 l=0 nsto= 1
    1       1.200000000000        1.000000000000
 22 H     1 shells
 l=0 nsto= 1
    1       1.200000000000        1.000000000000
 23 H     1 shells
 l=0 nsto= 1
    1       1.200000000000        1.000000000000
 24 H     1 shells
 l=0 nsto= 1
    1       1.200000000000        1.000000000000
 25 C     2 shells
 l=0 nsto= 1
    2       1.625000000000        1.000000000000
 l=1 nsto= 1
    2       1.625000000000        1.000000000000
 26 C     2 shells
 l=0 nsto= 1
    2       1.625000000000        1.000000000000
 l=1 nsto= 1
    2       1.625000000000        1.000000000000
 27 C     2 shells
 l=0 nsto= 1
    2       1.625000000000        1.000000000000
 l=1 nsto= 1
    2       1.625000000000        1.000000000000
 28 C     2 shells
 l=0 nsto= 1
    2       1.625000000000        1.000000000000
 l=1 nsto= 1
    2       1.625000000000        1.000000000000
 29 S     2 shells
 l=0 nsto= 1
    3       1.925000000000        1.000000000000
 l=1 nsto= 1
    3       1.925000000000        1.000000000000
 30 H     1 shells
 l=0 nsto= 1
    1       1.200000000000        1.000000000000
 31 C     2 shells
 l=0 nsto= 1
    2       1.625000000000        1.000000000000
 l=1 nsto= 1
    2       1.625000000000        1.000000000000
 32 C     2 shells
 l=0 nsto= 1
    2       1.625000000000        1.000000000000
 l=1 nsto= 1
    2       1.625000000000        1.000000000000
 33 C     2 shells
 l=0 nsto= 1
    2       1.625000000000        1.000000000000
 l=1 nsto= 1
    2       1.625000000000        1.000000000000
 34 H     1 shells
 l=0 nsto= 1
    1       1.200000000000        1.000000000000
 35 H     1 shells
 l=0 nsto= 1
    1       1.200000000000        1.000000000000
 36 H     1 shells
 l=0 nsto= 1
    1       1.200000000000        1.000000000000
 37 H     1 shells
 l=0 nsto= 1
    1       1.200000000000        1.000000000000
 38 H     1 shells
 l=0 nsto= 1
    1       1.200000000000        1.000000000000
 39 H     1 shells
 l=0 nsto= 1
    1       1.200000000000        1.000000000000
 40 C     2 shells
 l=0 nsto= 1
    2       1.625000000000        1.000000000000
 l=1 nsto= 1
    2       1.625000000000        1.000000000000
 41 C     2 shells
 l=0 nsto= 1
    2       1.625000000000        1.000000000000
 l=1 nsto= 1
    2       1.625000000000        1.000000000000
 42 C     2 shells
 l=0 nsto= 1
    2       1.625000000000        1.000000000000
 l=1 nsto= 1
    2       1.625000000000        1.000000000000
 43 H     1 shells
 l=0 nsto= 1
    1       1.200000000000        1.000000000000
 44 H     1 shells
 l=0 nsto= 1
    1       1.200000000000        1.000000000000
 45 H     1 shells
 l=0 nsto= 1
    1       1.200000000000        1.000000000000
 46 H     1 shells
 l=0 nsto= 1
    1       1.200000000000        1.000000000000
 47 H     1 shells
 l=0 nsto= 1
    1       1.200000000000        1.000000000000
 48 H     1 shells
 l=0 nsto= 1
    1       1.200000000000        1.000000000000
 49 H     1 shells
 l=0 nsto= 1
    1       1.200000000000        1.000000000000
 50 H     1 shells
 l=0 nsto= 1
    1       1.200000000000        1.000000000000
 51 H     1 shells
 l=0 nsto= 1
    1       1.200000000000        1.000000000000
 52 H     1 shells
 l=0 nsto= 1
    1       1.200000000000        1.000000000000
 53 H     1 shells
 l=0 nsto= 1
    1       1.200000000000        1.000000000000
------------------------------------------------------------------------------
                           ORCA NDO INTEGRAL CALCULATION
------------------------------------------------------------------------------

--------------
NDO PARAMETERS
--------------

Gamma integral treatment              ... Mataga-Nishimoto
Nuclear repulsuion treatment          ... Direct (ZA*ZB/RAB)
Interaction factors:
s-s (sigma) =    1.0000
s-p (sigma) =    1.0000
s-d (sigma) =    1.0000
p-p (sigma) =    1.2670  p-p(pi) =    0.5850
p-d (sigma) =    1.0000  p-d(pi) =    1.0000
d-d (sigma) =    1.0000  d-d(pi) =    1.0000 d-d (delta) =    1.0000

fGamma parameter for Mataga-Nishimoto gamma integrals:    1.2000

--------------------------
Parameters for Element H :
--------------------------
 One-electron parameters (in eV)
  U(s)  =   -13.060000 Beta(s) =    12.000000 Neff(s) =     1.000000
 One-center electron repulsion parameters (in eV)
  G(s,s)=    12.850000
--------------------------
Parameters for Element C :
--------------------------
 One-electron parameters (in eV)
  U(s)  =   -50.870766 Beta(s) =    17.000000 Neff(s) =     2.000000
  U(p)  =   -41.599980 Beta(p) =    17.000000 Neff(p) =     2.000000 
 One-center electron repulsion parameters (in eV)
  G(s,s)=    11.110000
  G(s,p)=    11.110000 G(p,p)  =    11.110000
 Slater-Condon parameters (in eV)
 F2(p,p)=     4.5098 G1(s,p)=    6.8977
--------------------------
Parameters for Element S :
--------------------------
 One-electron parameters (in eV)
  U(s)  =   -69.509597 Beta(s) =    15.000000 Neff(s) =     2.000000
  U(p)  =   -60.725746 Beta(p) =    15.000000 Neff(p) =     4.000000 
 One-center electron repulsion parameters (in eV)
  G(s,s)=    10.090000
  G(s,p)=    10.090000 G(p,p)  =    10.090000
 Slater-Condon parameters (in eV)
 F2(p,p)=     4.5377 G1(s,p)=    3.0756

 Number of atoms                    ....   54
 Number of basis functions          ....  120

 Overlap integrals                  .... done
 One electron matrix                .... done
 Nuclear repulsion                  .... done
 Integral list                      .... done
 Electron-electron repulsion        .... done
-------------------------------------------------------------------------------
                                 ORCA SCF
-------------------------------------------------------------------------------

------------
SCF SETTINGS
------------
Hamiltonian:
 ZDO-Hamiltonian        Method          .... INDO


General Settings:
 Integral files         IntName         .... /Users/mattyjones/GoogleDrive/Boise/Code/MorphCT/tests/output_EZ/donor_polymer/chromophores/input_orca/pair/00004-00023
 Hartree-Fock type      HFTyp           .... RHF
 Total Charge           Charge          ....    0
 Multiplicity           Mult            ....    1
 Number of Electrons    NEL             ....  124
 Basis Dimension        Dim             ....  120
 Nuclear Repulsion      ENuc            ....    640.3105404637 Eh

Convergence Acceleration:
 DIIS                   CNVDIIS         .... on
   Start iteration      DIISMaxIt       ....    12
   Startup error        DIISStart       ....  0.200000
   # of expansion vecs  DIISMaxEq       ....     5
   Bias factor          DIISBfac        ....   1.050
   Max. coefficient     DIISMaxC        ....  10.000
 Newton-Raphson         CNVNR           .... off
 SOSCF                  CNVSOSCF        .... on
   Start iteration      SOSCFMaxIt      ....   150
   Startup grad/error   SOSCFStart      ....  0.003300
 Level Shifting         CNVShift        .... on
   Level shift para.    LevelShift      ....    0.2500
   Turn off err/grad.   ShiftErr        ....    0.0010
 Zerner damping         CNVZerner       .... off
 Static damping         CNVDamp         .... on
   Fraction old density DampFac         ....    0.7000
   Max. Damping (<1)    DampMax         ....    0.9800
   Min. Damping (>=0)   DampMin         ....    0.0000
   Turn off err/grad.   DampErr         ....    0.1000
 Fernandez-Rico         CNVRico         .... off

SCF Procedure:
 Maximum # iterations   MaxIter         ....   125
 SCF integral mode      SCFMode         .... Conventional
 Integral Buffer length BufferLength    .... 1048576
 Integral index format  IndFormat       ....     0
 Integral value format  ValFormat       ....     0
 Integral Storage       Thresh          ....  1.000e-08 Eh

Convergence Tolerance:
 Convergence Check Mode ConvCheckMode   .... Total+1el-Energy
 Energy Change          TolE            ....  1.000e-06 Eh
 1-El. energy change                    ....  1.000e-03 Eh
 Orbital Gradient       TolG            ....  5.000e-05
 Orbital Rotation angle TolX            ....  5.000e-05
 DIIS Error             TolErr          ....  1.000e-06


Diagonalization of the overlap matrix:
Smallest eigenvalue                        ... 1.686e-01
Time for diagonalization                   ...    0.003 sec
Threshold for overlap eigenvalues          ... 1.000e-08
Number of eigenvalues below threshold      ... 0
Time for construction of square roots      ...    0.001 sec
Total time needed                          ...    0.005 sec

-------------------------------
INITIAL GUESS: EXTENDED HUECKEL
-------------------------------
EHT matrix was read from disk
EHT matrix was diagonalized
Initial density was built
                      ------------------
                      INITIAL GUESS DONE
                      ------------------

 InCore treatment chosen:
   Memory dedicated               ...    1024 MB
   Memory needed                  ...      0 MB
   Number of tiny    integrals    ...       0
   Number of small   integrals    ...       0
   Number of regular integrals    ...    7392

--------------
SCF ITERATIONS
--------------
ITER       Energy         Delta-E        Max-DP      RMS-DP      [F,P]     Damp
  0    -19.5097129720   0.000000000000 0.04802270  0.00151748  0.1237023 0.7000
  1    -19.5551142498  -0.045401277829 0.04678390  0.00143663  0.0848048 0.7000
                               ***Turning on DIIS***
  2    -19.5885851837  -0.033470933853 0.12270896  0.00369510  0.0525409 0.0000
  3    -19.6781078650  -0.089522681316 0.02550465  0.00076856  0.0225813 0.0000
  4    -19.6571555727   0.020952292278 0.01463181  0.00054611  0.0092745 0.0000
  5    -19.6772981204  -0.020142547628 0.01017905  0.00037305  0.0054994 0.0000
  6    -19.6785547871  -0.001256666779 0.00807124  0.00026792  0.0029734 0.0000
  7    -19.6758082821   0.002746504987 0.00508186  0.00015736  0.0017705 0.0000
                      *** Initiating the SOSCF procedure ***
                           *** Shutting down DIIS ***
                      *** Re-Reading the Fockian *** 
                      *** Removing any level shift *** 
ITER      Energy       Delta-E        Grad      Rot      Max-DP    RMS-DP
  8    -19.67500316   0.0008051252  0.001752  0.001752  0.004802  0.000140
  9    -19.67409549   0.0009076679  0.000119  0.000329  0.000485  0.000012
                 **** Energy Check signals convergence ****
              ***Rediagonalizing the Fockian in SOSCF/NRSCF***

               *****************************************************
               *                     SUCCESS                       *
               *           SCF CONVERGED AFTER  10 CYCLES          *
               *****************************************************


----------------
TOTAL SCF ENERGY
----------------

Total Energy       :          -19.67409607 Eh            -535.35937 eV

Components:
Nuclear Repulsion  :          640.31054046 Eh           17423.73561 eV
Electronic Energy  :         -659.98463653 Eh          -17959.09498 eV

One Electron Energy:        -1229.73837833 Eh          -33462.88249 eV
Two Electron Energy:          569.75374180 Eh           15503.78751 eV


---------------
SCF CONVERGENCE
---------------

  Last Energy change         ...   -5.8169e-07  Tolerance :   1.0000e-06
  Last MAX-Density change    ...    4.9148e-04  Tolerance :   1.0000e-05
  Last RMS-Density change    ...    1.2685e-05  Tolerance :   1.0000e-06
  Last Orbital Gradient      ...    6.2840e-05  Tolerance :   5.0000e-05
  Last Orbital Rotation      ...    3.6527e-04  Tolerance :   5.0000e-05

             **** THE GBW FILE WAS UPDATED (/Users/mattyjones/GoogleDrive/Boise/Code/MorphCT/tests/output_EZ/donor_polymer/chromophores/input_orca/pair/00004-00023.gbw) ****
             **** DENSITY FILE WAS UPDATED (/Users/mattyjones/GoogleDrive/Boise/Code/MorphCT/tests/output_EZ/donor_polymer/chromophores/input_orca/pair/00004-00023.scfp.tmp) ****
             **** ENERGY FILE WAS UPDATED (/Users/mattyjones/GoogleDrive/Boise/Code/MorphCT/tests/output_EZ/donor_polymer/chromophores/input_orca/pair/00004-00023.en.tmp) ****
----------------
ORBITAL ENERGIES
----------------

  NO   OCC          E(Eh)            E(eV) 
   0   2.0000      -1.561034       -42.4779 
   1   2.0000      -1.558845       -42.4183 
   2   2.0000      -1.415616       -38.5209 
   3   2.0000      -1.387855       -37.7655 
   4   2.0000      -1.287921       -35.0461 
   5   2.0000      -1.274186       -34.6724 
   6   2.0000      -1.178753       -32.0755 
   7   2.0000      -1.175826       -31.9958 
   8   2.0000      -1.112799       -30.2808 
   9   2.0000      -1.108129       -30.1537 
  10   2.0000      -1.061897       -28.8957 
  11   2.0000      -1.054594       -28.6970 
  12   2.0000      -0.969734       -26.3878 
  13   2.0000      -0.948789       -25.8179 
  14   2.0000      -0.906681       -24.6720 
  15   2.0000      -0.886529       -24.1237 
  16   2.0000      -0.861126       -23.4324 
  17   2.0000      -0.846477       -23.0338 
  18   2.0000      -0.827421       -22.5153 
  19   2.0000      -0.821731       -22.3605 
  20   2.0000      -0.780822       -21.2472 
  21   2.0000      -0.774978       -21.0882 
  22   2.0000      -0.723432       -19.6856 
  23   2.0000      -0.720610       -19.6088 
  24   2.0000      -0.704259       -19.1639 
  25   2.0000      -0.693755       -18.8780 
  26   2.0000      -0.665028       -18.0963 
  27   2.0000      -0.655988       -17.8503 
  28   2.0000      -0.654386       -17.8067 
  29   2.0000      -0.639739       -17.4082 
  30   2.0000      -0.636872       -17.3302 
  31   2.0000      -0.607150       -16.5214 
  32   2.0000      -0.585853       -15.9419 
  33   2.0000      -0.584360       -15.9012 
  34   2.0000      -0.580138       -15.7864 
  35   2.0000      -0.578277       -15.7357 
  36   2.0000      -0.577638       -15.7183 
  37   2.0000      -0.561997       -15.2927 
  38   2.0000      -0.551640       -15.0109 
  39   2.0000      -0.544600       -14.8193 
  40   2.0000      -0.538051       -14.6411 
  41   2.0000      -0.532649       -14.4941 
  42   2.0000      -0.527797       -14.3621 
  43   2.0000      -0.517641       -14.0857 
  44   2.0000      -0.507251       -13.8030 
  45   2.0000      -0.503523       -13.7016 
  46   2.0000      -0.498941       -13.5769 
  47   2.0000      -0.497938       -13.5496 
  48   2.0000      -0.484518       -13.1844 
  49   2.0000      -0.477879       -13.0038 
  50   2.0000      -0.476626       -12.9697 
  51   2.0000      -0.465932       -12.6787 
  52   2.0000      -0.464688       -12.6448 
  53   2.0000      -0.462374       -12.5818 
  54   2.0000      -0.458127       -12.4663 
  55   2.0000      -0.457891       -12.4599 
  56   2.0000      -0.435773       -11.8580 
  57   2.0000      -0.433924       -11.8077 
  58   2.0000      -0.349689        -9.5155 
  59   2.0000      -0.347505        -9.4561 
  60   2.0000      -0.305154        -8.3037 
  61   2.0000      -0.304087        -8.2746 
  62   0.0000       0.000474         0.0129 
  63   0.0000       0.002731         0.0743 
  64   0.0000       0.057123         1.5544 
  65   0.0000       0.060518         1.6468 
  66   0.0000       0.067314         1.8317 
  67   0.0000       0.071675         1.9504 
  68   0.0000       0.086791         2.3617 
  69   0.0000       0.086868         2.3638 
  70   0.0000       0.104002         2.8300 
  71   0.0000       0.105777         2.8783 
  72   0.0000       0.108814         2.9610 
  73   0.0000       0.110099         2.9959 
  74   0.0000       0.128942         3.5087 
  75   0.0000       0.129009         3.5105 
  76   0.0000       0.140744         3.8298 
  77   0.0000       0.141615         3.8535 
  78   0.0000       0.158121         4.3027 
  79   0.0000       0.159792         4.3482 
  80   0.0000       0.166534         4.5316 
  81   0.0000       0.171282         4.6608 
  82   0.0000       0.172769         4.7013 
  83   0.0000       0.178177         4.8484 
  84   0.0000       0.198219         5.3938 
  85   0.0000       0.201489         5.4828 
  86   0.0000       0.231971         6.3123 
  87   0.0000       0.233448         6.3525 
  88   0.0000       0.234448         6.3796 
  89   0.0000       0.236751         6.4423 
  90   0.0000       0.237370         6.4592 
  91   0.0000       0.239038         6.5046 
  92   0.0000       0.239161         6.5079 
  93   0.0000       0.240370         6.5408 
  94   0.0000       0.241075         6.5600 
  95   0.0000       0.241321         6.5667 
  96   0.0000       0.243511         6.6263 
  97   0.0000       0.243649         6.6300 
  98   0.0000       0.244426         6.6512 
  99   0.0000       0.245951         6.6927 
 100   0.0000       0.247151         6.7253 
 101   0.0000       0.251954         6.8560 
 102   0.0000       0.258808         7.0425 
 103   0.0000       0.260669         7.0932 
 104   0.0000       0.264335         7.1929 
 105   0.0000       0.266176         7.2430 
 106   0.0000       0.267902         7.2900 
 107   0.0000       0.285358         7.7650 
 108   0.0000       0.298990         8.1359 
 109   0.0000       0.302235         8.2242 
 110   0.0000       0.308388         8.3917 
 111   0.0000       0.310340         8.4448 
 112   0.0000       0.332989         9.0611 
 113   0.0000       0.337662         9.1882 
 114   0.0000       0.351251         9.5580 
 115   0.0000       0.351437         9.5631 
 116   0.0000       0.413013        11.2387 
 117   0.0000       0.418278        11.3819 
 118   0.0000       0.431307        11.7365 
 119   0.0000       0.431408        11.7392 
-------
TIMINGS
-------

Total SCF time: 0 days 0 hours 0 min 0 sec 

Total time                  ....       0.113 sec
Sum of individual times     ....       0.088 sec  ( 77.8%)

Fock matrix formation       ....       0.040 sec  ( 35.5%)
Diagonalization             ....       0.026 sec  ( 23.3%)
Density matrix formation    ....       0.004 sec  (  4.0%)
Population analysis         ....       0.000 sec  (  0.0%)
Initial guess               ....       0.003 sec  (  2.8%)
Orbital Transformation      ....       0.000 sec  (  0.0%)
Orbital Orthonormalization  ....       0.000 sec  (  0.0%)
DIIS solution               ....       0.011 sec  ( 10.0%)
SOSCF solution              ....       0.003 sec  (  2.3%)

-------------------------   --------------------
FINAL SINGLE POINT ENERGY       -19.674096070738
-------------------------   --------------------


                            ***************************************
                            *     ORCA property calculations      *
                            ***************************************

                                    ---------------------
                                    Active property flags
                                    ---------------------
   (+) Dipole Moment


------------------------------------------------------------------------------
                       ORCA ELECTRIC PROPERTIES CALCULATION
------------------------------------------------------------------------------

Dipole Moment Calculation                       ... on
Quadrupole Moment Calculation                   ... off
Polarizability Calculation                      ... off
GBWName                                         ... /Users/mattyjones/GoogleDrive/Boise/Code/MorphCT/tests/output_EZ/donor_polymer/chromophores/input_orca/pair/00004-00023.gbw
Electron density file                           ... /Users/mattyjones/GoogleDrive/Boise/Code/MorphCT/tests/output_EZ/donor_polymer/chromophores/input_orca/pair/00004-00023.scfp.tmp

-------------
DIPOLE MOMENT
-------------
                                X             Y             Z
Electronic contribution:    192.69882      95.42582      71.72794
Nuclear contribution   :   -101.88454     -50.87406     -38.77020
                        -----------------------------------------
Total Dipole Moment    :     90.81428      44.55176      32.95774
                        -----------------------------------------
Magnitude (a.u.)       :    106.38753
Magnitude (Debye)      :    270.41560


Timings for individual modules:

Sum of individual times         ...        0.195 sec (=   0.003 min)
STO integral calculation        ...        0.044 sec (=   0.001 min)  22.4 %
SCF iterations                  ...        0.151 sec (=   0.003 min)  77.6 %
                             ****ORCA TERMINATED NORMALLY****
TOTAL RUN TIME: 0 days 0 hours 0 minutes 0 seconds 527 msec

