
                                 *****************
                                 * O   R   C   A *
                                 *****************

           --- An Ab Initio, DFT and Semiempirical electronic structure package ---

                  #######################################################
                  #                        -***-                        #
                  #  Department of molecular theory and spectroscopy    #
                  #              Directorship: Frank Neese              #
                  # Max Planck Institute for Chemical Energy Conversion #
                  #                  D-45470 Muelheim/Ruhr              #
                  #                       Germany                       #
                  #                                                     #
                  #                  All rights reserved                #
                  #                        -***-                        #
                  #######################################################


                         Program Version 3.0.3 - RELEASE   -


 With contributions from (in alphabetic order):
   Ute Becker             : Parallelization
   Dmytro Bykov           : SCF Hessian
   Dmitry Ganyushin       : Spin-Orbit,Spin-Spin,Magnetic field MRCI
   Andreas Hansen         : Spin unrestricted coupled pair/coupled cluster methods
   Dimitrios Liakos       : Extrapolation schemes; parallel MDCI
   Robert Izsak           : Overlap fitted RIJCOSX, COSX-SCS-MP3
   Christian Kollmar      : KDIIS, OOCD, Brueckner-CCSD(T), CCSD density
   Simone Kossmann        : Meta GGA functionals, TD-DFT gradient, OOMP2, MP2 Hessian
   Taras Petrenko         : DFT Hessian,TD-DFT gradient, ASA and ECA modules, normal mode analysis, Resonance Raman, ABS, FL, XAS/XES, NRVS
   Christoph Reimann      : Effective Core Potentials
   Michael Roemelt        : Restricted open shell CIS
   Christoph Riplinger    : Improved optimizer, TS searches, QM/MM, DLPNO-CCSD
   Barbara Sandhoefer     : DKH picture change effects
   Igor Schapiro          : Molecular dynamics
   Kantharuban Sivalingam : CASSCF convergence, NEVPT2
   Boris Wezisla          : Elementary symmetry handling
   Frank Wennmohs         : Technical directorship


 We gratefully acknowledge several colleagues who have allowed us to
 interface, adapt or use parts of their codes:
   Stefan Grimme, W. Hujo, H. Kruse, T. Risthaus : VdW corrections, initial TS optimization,
                                                   DFT functionals, gCP
   Ed Valeev                                     : LibInt (2-el integral package), F12 methods
   Garnet Chan, S. Sharma, R. Olivares           : DMRG
   Ulf Ekstrom                                   : XCFun DFT Library
   Mihaly Kallay                                 : mrcc  (arbitrary order and MRCC methods)
   Andreas Klamt, Michael Diedenhofen            : otool_cosmo (COSMO solvation model)
   Frank Weinhold                                : gennbo (NPA and NBO analysis)
   Christopher J. Cramer and Donald G. Truhlar   : smd solvation model


 Your calculation uses the libint2 library for the computation of 2-el integrals
 For citations please refer to: http://libint.valeyev.net

 This ORCA versions uses:
   CBLAS   interface :  Fast vector & matrix operations
   LAPACKE interface :  Fast linear algebra routines
   SCALAPACK package :  Parallel linear algebra routines


leaving
================================================================================
                                        WARNINGS
                       Please study these warnings very carefully!
================================================================================
Now building the actual basis set

WARNING: Direct SCF is incompatible with Method<>HF and Method<>DFT
  ===> : conventional SCF is chosen

WARNING: The NDO methods need Guess=HUECKEL or Guess=HCORE or Guess=MOREAD
  ===> : Guess is set to Hueckel

WARNING: The NDO methods need %rel::SOCType==1
  ===> : %rel::SOCType is set to 1

WARNING: The NDO methods cannot have frozencore=1
  ===> : %method FrozenCore=0 end


INFO   : the flag for use of LIBINT has been found!

================================================================================
                                       INPUT FILE
================================================================================
NAME = /Users/mattyjones/GoogleDrive/Boise/Code/MorphCT/tests/output_EZ/donor_polymer/chromophores/input_orca/pair/00003-00020.inp
|  1> # ================================================================
|  2> # Orca input file made by Matty Jones
|  3> # ================================================================
|  4> ! ZINDO/S 
|  5> ! NOPOP
|  6> ! NOMOPRINT
|  7> * xyz 0   1
|  8>  C  13.13564  4.62876  -5.09809
|  9>  C  14.03832  5.38120  -4.34517
| 10>  C  14.89857  4.59926  -3.51282
| 11>  C  14.67404  3.22244  -3.60898
| 12>  S  13.44031  3.04747  -4.70339
| 13>  H  14.63499  6.34816  -4.66215
| 14>  C  16.10614  4.97321  -2.47808
| 15>  C  17.54149  5.81351  -2.86856
| 16>  C  17.79482  7.46012  -2.66107
| 17>  H  18.33748  7.86485  -3.59838
| 18>  H  16.77245  7.98473  -2.55889
| 19>  H  18.37520  5.27170  -2.27355
| 20>  H  17.71457  5.60313  -3.99430
| 21>  H  15.63746  5.63648  -1.63869
| 22>  H  16.49233  4.00719  -1.96101
| 23>  C  18.71162  7.74148  -1.33651
| 24>  C  17.87996  7.57612  0.12074
| 25>  C  16.98681  8.93667  0.52982
| 26>  H  17.37277  9.85313  -0.06213
| 27>  H  17.08538  9.13783  1.66482
| 28>  H  15.87512  8.74721  0.26472
| 29>  H  17.17569  6.66827  0.04676
| 30>  H  18.65531  7.39049  0.95441
| 31>  H  19.60268  7.00311  -1.31562
| 32>  H  19.13534  8.81711  -1.38500
| 33>  C  -18.82639  -10.77653  2.14078
| 34>  C  -17.95440  -9.69718  2.29089
| 35>  C  -18.51208  -8.59095  3.00469
| 36>  C  -19.83108  -8.79784  3.42032
| 37>  S  -20.23225  -10.31721  2.89023
| 38>  H  -16.86123  -9.69628  1.96469
| 39>  C  -17.42675  -7.38282  3.13736
| 40>  C  -17.53745  -5.75077  2.66946
| 41>  C  -15.97541  -5.09100  2.94456
| 42>  H  -15.91643  -4.89355  4.08385
| 43>  H  -15.20954  -5.91923  2.68070
| 44>  H  -17.79602  -5.67735  1.55640
| 45>  H  -18.30642  -5.20078  3.31429
| 46>  H  -17.17662  -7.29995  4.28333
| 47>  H  -16.43536  -7.72746  2.61700
| 48>  C  -15.51277  -3.73557  2.16265
| 49>  C  -14.72247  -3.98153  0.67484
| 50>  C  -13.04074  -4.11255  0.72295
| 51>  H  -12.67991  -4.11278  1.82149
| 52>  H  -12.57085  -3.21696  0.15954
| 53>  H  -12.72003  -5.09955  0.20952
| 54>  H  -15.14029  -4.94932  0.21014
| 55>  H  -14.98246  -3.08751  -0.00519
| 56>  H  -16.44143  -3.08182  1.94981
| 57>  H  -14.78311  -3.14021  2.83448
| 58>  H  12.40859  4.99169  -5.77874
| 59>  H  15.18532  2.45189  -3.09085
| 60>  H  -18.63106  -11.69605  1.65094
| 61>  H  -20.44583  -8.12453  3.96100
| 62> *
| 63> 
| 64>                          ****END OF INPUT****
================================================================================

                       ****************************
                       * Single Point Calculation *
                       ****************************

---------------------------------
CARTESIAN COORDINATES (ANGSTROEM)
---------------------------------
  C     13.135640    4.628760   -5.098090
  C     14.038320    5.381200   -4.345170
  C     14.898570    4.599260   -3.512820
  C     14.674040    3.222440   -3.608980
  S     13.440310    3.047470   -4.703390
  H     14.634990    6.348160   -4.662150
  C     16.106140    4.973210   -2.478080
  C     17.541490    5.813510   -2.868560
  C     17.794820    7.460120   -2.661070
  H     18.337480    7.864850   -3.598380
  H     16.772450    7.984730   -2.558890
  H     18.375200    5.271700   -2.273550
  H     17.714570    5.603130   -3.994300
  H     15.637460    5.636480   -1.638690
  H     16.492330    4.007190   -1.961010
  C     18.711620    7.741480   -1.336510
  C     17.879960    7.576120    0.120740
  C     16.986810    8.936670    0.529820
  H     17.372770    9.853130   -0.062130
  H     17.085380    9.137830    1.664820
  H     15.875120    8.747210    0.264720
  H     17.175690    6.668270    0.046760
  H     18.655310    7.390490    0.954410
  H     19.602680    7.003110   -1.315620
  H     19.135340    8.817110   -1.385000
  C    -18.826390  -10.776530    2.140780
  C    -17.954400   -9.697180    2.290890
  C    -18.512080   -8.590950    3.004690
  C    -19.831080   -8.797840    3.420320
  S    -20.232250  -10.317210    2.890230
  H    -16.861230   -9.696280    1.964690
  C    -17.426750   -7.382820    3.137360
  C    -17.537450   -5.750770    2.669460
  C    -15.975410   -5.091000    2.944560
  H    -15.916430   -4.893550    4.083850
  H    -15.209540   -5.919230    2.680700
  H    -17.796020   -5.677350    1.556400
  H    -18.306420   -5.200780    3.314290
  H    -17.176620   -7.299950    4.283330
  H    -16.435360   -7.727460    2.617000
  C    -15.512770   -3.735570    2.162650
  C    -14.722470   -3.981530    0.674840
  C    -13.040740   -4.112550    0.722950
  H    -12.679910   -4.112780    1.821490
  H    -12.570850   -3.216960    0.159540
  H    -12.720030   -5.099550    0.209520
  H    -15.140290   -4.949320    0.210140
  H    -14.982460   -3.087510   -0.005190
  H    -16.441430   -3.081820    1.949810
  H    -14.783110   -3.140210    2.834480
  H     12.408590    4.991690   -5.778740
  H     15.185320    2.451890   -3.090850
  H    -18.631060  -11.696050    1.650940
  H    -20.445830   -8.124530    3.961000

----------------------------
CARTESIAN COORDINATES (A.U.)
----------------------------
  NO LB      ZA    FRAG    MASS        X           Y           Z
   0 C     4.0000    0    12.011         24.822762193781351          8.747088739649332         -9.633993906082594
   1 C     4.0000    0    12.011         26.528580180349387         10.168994271857040         -8.211181305330605
   2 C     4.0000    0    12.011         28.154217087055141          8.691341818698657         -6.638267757761251
   3 C     4.0000    0    12.011         27.729916878205803          6.089529082993199         -6.819983822799118
   4 S     6.0000    0    32.060         25.398505055003138          5.758883701340997         -8.888119001023876
   5 H     1.0000    0     1.008         27.656123072676181         11.996283854313534         -8.810186695260963
   6 C     4.0000    0    12.011         30.436193674594428          9.398004906478509         -4.682892537947575
   7 C     4.0000    0    12.011         33.148612080918298         10.985941776812536         -5.420792798721146
   8 C     4.0000    0    12.011         33.627336402424568         14.097583726188608         -5.028693523193826
   9 H     1.0000    0     1.008         34.652815186258273         14.862412584370556         -6.799952725779554
  10 H     1.0000    0     1.008         31.695337094887496         15.088952953305036         -4.835601306829751
  11 H     1.0000    0     1.008         34.724095656029782          9.962069260192662         -4.296386851776662
  12 H     1.0000    0     1.008         33.475685880177387         10.588381192758183         -7.548133096721656
  13 H     1.0000    0     1.008         29.550516830148219         10.651403559324455         -3.096675318395416
  14 H     1.0000    0     1.008         31.165987010253474          7.572491666587900         -3.705771845880914
  15 C     4.0000    0    12.011         35.359837322003571         14.629277071228692         -2.525637875247092
  16 C     4.0000    0    12.011         33.788227685466623         14.316791957723474          0.228165533409652
  17 C     4.0000    0    12.011         32.100418788954855         16.887858849230032          1.001214700274157
  18 H     1.0000    0     1.008         32.829777487603103         18.619717261923501         -0.117408684700527
  19 H     1.0000    0     1.008         32.286689093975475         17.267996158329630          3.146053862274778
  20 H     1.0000    0     1.008         29.999629143135941         16.529831335897313          0.500248302171634
  21 H     1.0000    0     1.008         32.457350261129903         12.601204087043063          0.088363594022158
  22 H     1.0000    0     1.008         35.253426843402465         13.966002095483670          1.803573519475782
  23 H     1.0000    0     1.008         37.043696690895437         13.233959985725258         -2.486161496309477
  24 H     1.0000    0     1.008         36.160552079468680         16.661923192658406         -2.617270695480934
  25 C     4.0000    0    12.011        -35.576721190393712        -20.364690373986384          4.045487912975937
  26 C     4.0000    0    12.011        -33.928898898875723        -18.325014471338481          4.329154702938856
  27 C     4.0000    0    12.011        -34.982761369240926        -16.234542730210777          5.678041217331846
  28 C     4.0000    0    12.011        -37.475310139883057        -16.625508170057746          6.463468090373535
  29 S     6.0000    0    32.060        -38.233411573028242        -19.496701366153676          5.461743164043219
  30 H     1.0000    0     1.008        -31.863106981057026        -18.323313717817953          3.712726038053744
  31 C     4.0000    0    12.011        -32.931784904312167        -13.951507896036494          5.928751183519179
  32 C     4.0000    0    12.011        -33.140977587337254        -10.867380359170317          5.044548325457424
  33 C     4.0000    0    12.011        -30.189149777106902         -9.620595747793093          5.564411984899161
  34 H     1.0000    0     1.008        -30.077693729728228         -9.247469322650341          7.717358072014304
  35 H     1.0000    0     1.008        -28.741865222920634        -11.185723623690690          5.065788847202700
  36 H     1.0000    0     1.008        -33.629604073785273        -10.728636666417817          2.941169754835036
  37 H     1.0000    0     1.008        -34.594120292538676         -9.828049882774968          6.263100428393866
  38 H     1.0000    0     1.008        -32.459107706434452        -13.794906291318441          8.094320641208915
  39 H     1.0000    0     1.008        -31.058329312403981        -14.602783110831115          4.945413292471915
  40 C     4.0000    0    12.011        -29.314886878509576         -7.059204254092210          4.086816223524795
  41 C     4.0000    0    12.011        -27.821436314871608         -7.524001293991481          1.275262784215417
  42 C     4.0000    0    12.011        -24.643427183672223         -7.771593212057843          1.366177508518369
  43 H     1.0000    0     1.008        -23.961557302769418         -7.772027849068645          3.442117255676221
  44 H     1.0000    0     1.008        -23.755463770603967         -6.079173383779310          0.301486907405796
  45 H     1.0000    0     1.008        -24.037373115262337         -9.636752906238119          0.395935419579181
  46 H     1.0000    0     1.008        -28.611001688146587         -9.352859349139129          0.397107049782212
  47 H     1.0000    0     1.008        -28.312746212429797         -5.834548335743204         -0.009807678635051
  48 H     1.0000    0     1.008        -31.069799950036884         -5.823795794041192          3.684606913180996
  49 H     1.0000    0     1.008        -27.936029307632595         -5.934136903000854          5.356390932077110
  50 H     1.0000    0     1.008         23.448836808113903          9.432927045433374        -10.920235999136095
  51 H     1.0000    0     1.008         28.696096055957064          4.633400610500178         -5.840860021030501
  52 H     1.0000    0     1.008        -35.207600984654874        -22.102331348649656          3.119824463535951
  53 H     1.0000    0     1.008        -38.637019280711144        -15.353136666827227          7.485205216462077

--------------------------------
INTERNAL COORDINATES (ANGSTROEM)
--------------------------------
 C      0   0   0   0.000000     0.000     0.000
 C      1   0   0   1.395667     0.000     0.000
 C      2   1   0   1.429779   114.101     0.000
 C      3   2   1   1.398318   113.693     0.000
 S      1   2   3   1.658038   105.480     0.000
 H      2   1   3   1.179620   128.617   141.126
 C      3   2   1   1.633631   133.495   179.248
 C      7   3   2   1.708452   126.075   300.986
 C      8   7   3   1.678855   125.516    96.305
 H      9   8   7   1.156216   108.298   222.542
 H      9   8   7   1.153645   108.858   341.138
 H      8   7   3   1.158735   104.900   219.964
 H      8   7   3   1.158234   104.972   333.518
 H      7   3   2   1.167974   106.773    61.422
 H      7   3   2   1.161765   109.712   176.571
 C      9   8   7   1.635281   110.699   102.529
 C     16   9   8   1.685995   113.996   284.055
 C     17  16   9   1.678142   113.186   278.322
 H     18  17  16   1.157268   109.868   341.138
 H     18  17  16   1.156895   109.559   220.660
 H     18  17  16   1.158459   108.806   100.910
 H     17  16   9   1.151373   108.876    39.999
 H     17  16   9   1.153530   107.992   158.587
 H     16   9   8   1.157417   109.662    44.693
 H     16   9   8   1.157095   109.348   163.148
 C      5   1   2  35.764306   104.384   131.813
 C     26   5   1   1.395670    32.646   317.945
 C     27  26   5   1.429777   114.101   178.399
 C     28  27  26   1.398325   113.693     0.000
 S     26   5   1   1.658039   138.108   320.256
 H     27  26   5   1.140801   124.649   353.397
 C     28  27  26   1.629454   110.763   179.779
 C     32  28  27   1.701403   130.202   124.200
 C     33  32  28   1.717832   105.380   186.085
 H     34  33  32   1.157777   105.629   281.290
 H     34  33  32   1.158509   106.863    36.361
 H     33  32  28   1.145055   110.092   304.255
 H     33  32  28   1.144382   110.473    67.733
 H     32  28  27   1.175874   105.860   246.322
 H     32  28  27   1.171497   108.022   359.372
 C     34  33  32   1.631750   120.007   158.621
 C     41  34  33   1.702542   115.490   269.162
 C     42  41  34   1.687512   116.673   269.204
 H     43  42  41   1.156282   109.761     5.477
 H     43  42  41   1.157717   109.302   245.215
 H     43  42  41   1.157858   109.243   125.614
 H     42  41  34   1.152014   107.789    30.727
 H     42  41  34   1.152956   107.381   148.467
 H     41  34  33   1.155465   109.292    29.944
 H     41  34  33   1.156811   109.150   148.859
 H      1   2   3   1.060002   127.260   180.000
 H      4   3   2   1.060006   127.207   180.000
 H     26   5   1   1.060007    94.624   139.224
 H     29  28  27   1.059999   127.206   180.000

---------------------------
INTERNAL COORDINATES (A.U.)
---------------------------
 C      0   0   0   0.000000     0.000     0.000
 C      1   0   0   2.637428     0.000     0.000
 C      2   1   0   2.701890   114.101     0.000
 C      3   2   1   2.642438   113.693     0.000
 S      1   2   3   3.133238   105.480     0.000
 H      2   1   3   2.229159   128.617   141.126
 C      3   2   1   3.087116   133.495   179.248
 C      7   3   2   3.228506   126.075   300.986
 C      8   7   3   3.172575   125.516    96.305
 H      9   8   7   2.184932   108.298   222.542
 H      9   8   7   2.180073   108.858   341.138
 H      8   7   3   2.189692   104.900   219.964
 H      8   7   3   2.188746   104.972   333.518
 H      7   3   2   2.207151   106.773    61.422
 H      7   3   2   2.195418   109.712   176.571
 C      9   8   7   3.090234   110.699   102.529
 C     16   9   8   3.186069   113.996   284.055
 C     17  16   9   3.171228   113.186   278.322
 H     18  17  16   2.186919   109.868   341.138
 H     18  17  16   2.186215   109.559   220.660
 H     18  17  16   2.189171   108.806   100.910
 H     17  16   9   2.175781   108.876    39.999
 H     17  16   9   2.179856   107.992   158.587
 H     16   9   8   2.187202   109.662    44.693
 H     16   9   8   2.186593   109.348   163.148
 C      5   1   2  67.584743   104.384   131.813
 C     26   5   1   2.637435    32.646   317.945
 C     27  26   5   2.701887   114.101   178.399
 C     28  27  26   2.642451   113.693     0.000
 S     26   5   1   3.133239   138.108   320.256
 H     27  26   5   2.155802   124.649   353.397
 C     28  27  26   3.079222   110.763   179.779
 C     32  28  27   3.215186   130.202   124.200
 C     33  32  28   3.246231   105.380   186.085
 H     34  33  32   2.187881   105.629   281.290
 H     34  33  32   2.189265   106.863    36.361
 H     33  32  28   2.163841   110.092   304.255
 H     33  32  28   2.162568   110.473    67.733
 H     32  28  27   2.222080   105.860   246.322
 H     32  28  27   2.213809   108.022   359.372
 C     34  33  32   3.083561   120.007   158.621
 C     41  34  33   3.217338   115.490   269.162
 C     42  41  34   3.188935   116.673   269.204
 H     43  42  41   2.185057   109.761     5.477
 H     43  42  41   2.187768   109.302   245.215
 H     43  42  41   2.188034   109.243   125.614
 H     42  41  34   2.176992   107.789    30.727
 H     42  41  34   2.178771   107.381   148.467
 H     41  34  33   2.183512   109.292    29.944
 H     41  34  33   2.186057   109.150   148.859
 H      1   2   3   2.003114   127.260   180.000
 H      4   3   2   2.003122   127.207   180.000
 H     26   5   1   2.003122    94.624   139.224
 H     29  28  27   2.003109   127.206   180.000

----------------------------
SLATER BASIS SET DIM= 120
----------------------------
  0 C     2 shells
 l=0 nsto= 1
    2       1.625000000000        1.000000000000
 l=1 nsto= 1
    2       1.625000000000        1.000000000000
  1 C     2 shells
 l=0 nsto= 1
    2       1.625000000000        1.000000000000
 l=1 nsto= 1
    2       1.625000000000        1.000000000000
  2 C     2 shells
 l=0 nsto= 1
    2       1.625000000000        1.000000000000
 l=1 nsto= 1
    2       1.625000000000        1.000000000000
  3 C     2 shells
 l=0 nsto= 1
    2       1.625000000000        1.000000000000
 l=1 nsto= 1
    2       1.625000000000        1.000000000000
  4 S     2 shells
 l=0 nsto= 1
    3       1.925000000000        1.000000000000
 l=1 nsto= 1
    3       1.925000000000        1.000000000000
  5 H     1 shells
 l=0 nsto= 1
    1       1.200000000000        1.000000000000
  6 C     2 shells
 l=0 nsto= 1
    2       1.625000000000        1.000000000000
 l=1 nsto= 1
    2       1.625000000000        1.000000000000
  7 C     2 shells
 l=0 nsto= 1
    2       1.625000000000        1.000000000000
 l=1 nsto= 1
    2       1.625000000000        1.000000000000
  8 C     2 shells
 l=0 nsto= 1
    2       1.625000000000        1.000000000000
 l=1 nsto= 1
    2       1.625000000000        1.000000000000
  9 H     1 shells
 l=0 nsto= 1
    1       1.200000000000        1.000000000000
 10 H     1 shells
 l=0 nsto= 1
    1       1.200000000000        1.000000000000
 11 H     1 shells
 l=0 nsto= 1
    1       1.200000000000        1.000000000000
 12 H     1 shells
 l=0 nsto= 1
    1       1.200000000000        1.000000000000
 13 H     1 shells
 l=0 nsto= 1
    1       1.200000000000        1.000000000000
 14 H     1 shells
 l=0 nsto= 1
    1       1.200000000000        1.000000000000
 15 C     2 shells
 l=0 nsto= 1
    2       1.625000000000        1.000000000000
 l=1 nsto= 1
    2       1.625000000000        1.000000000000
 16 C     2 shells
 l=0 nsto= 1
    2       1.625000000000        1.000000000000
 l=1 nsto= 1
    2       1.625000000000        1.000000000000
 17 C     2 shells
 l=0 nsto= 1
    2       1.625000000000        1.000000000000
 l=1 nsto= 1
    2       1.625000000000        1.000000000000
 18 H     1 shells
 l=0 nsto= 1
    1       1.200000000000        1.000000000000
 19 H     1 shells
 l=0 nsto= 1
    1       1.200000000000        1.000000000000
 20 H     1 shells
 l=0 nsto= 1
    1       1.200000000000        1.000000000000
 21 H     1 shells
 l=0 nsto= 1
    1       1.200000000000        1.000000000000
 22 H     1 shells
 l=0 nsto= 1
    1       1.200000000000        1.000000000000
 23 H     1 shells
 l=0 nsto= 1
    1       1.200000000000        1.000000000000
 24 H     1 shells
 l=0 nsto= 1
    1       1.200000000000        1.000000000000
 25 C     2 shells
 l=0 nsto= 1
    2       1.625000000000        1.000000000000
 l=1 nsto= 1
    2       1.625000000000        1.000000000000
 26 C     2 shells
 l=0 nsto= 1
    2       1.625000000000        1.000000000000
 l=1 nsto= 1
    2       1.625000000000        1.000000000000
 27 C     2 shells
 l=0 nsto= 1
    2       1.625000000000        1.000000000000
 l=1 nsto= 1
    2       1.625000000000        1.000000000000
 28 C     2 shells
 l=0 nsto= 1
    2       1.625000000000        1.000000000000
 l=1 nsto= 1
    2       1.625000000000        1.000000000000
 29 S     2 shells
 l=0 nsto= 1
    3       1.925000000000        1.000000000000
 l=1 nsto= 1
    3       1.925000000000        1.000000000000
 30 H     1 shells
 l=0 nsto= 1
    1       1.200000000000        1.000000000000
 31 C     2 shells
 l=0 nsto= 1
    2       1.625000000000        1.000000000000
 l=1 nsto= 1
    2       1.625000000000        1.000000000000
 32 C     2 shells
 l=0 nsto= 1
    2       1.625000000000        1.000000000000
 l=1 nsto= 1
    2       1.625000000000        1.000000000000
 33 C     2 shells
 l=0 nsto= 1
    2       1.625000000000        1.000000000000
 l=1 nsto= 1
    2       1.625000000000        1.000000000000
 34 H     1 shells
 l=0 nsto= 1
    1       1.200000000000        1.000000000000
 35 H     1 shells
 l=0 nsto= 1
    1       1.200000000000        1.000000000000
 36 H     1 shells
 l=0 nsto= 1
    1       1.200000000000        1.000000000000
 37 H     1 shells
 l=0 nsto= 1
    1       1.200000000000        1.000000000000
 38 H     1 shells
 l=0 nsto= 1
    1       1.200000000000        1.000000000000
 39 H     1 shells
 l=0 nsto= 1
    1       1.200000000000        1.000000000000
 40 C     2 shells
 l=0 nsto= 1
    2       1.625000000000        1.000000000000
 l=1 nsto= 1
    2       1.625000000000        1.000000000000
 41 C     2 shells
 l=0 nsto= 1
    2       1.625000000000        1.000000000000
 l=1 nsto= 1
    2       1.625000000000        1.000000000000
 42 C     2 shells
 l=0 nsto= 1
    2       1.625000000000        1.000000000000
 l=1 nsto= 1
    2       1.625000000000        1.000000000000
 43 H     1 shells
 l=0 nsto= 1
    1       1.200000000000        1.000000000000
 44 H     1 shells
 l=0 nsto= 1
    1       1.200000000000        1.000000000000
 45 H     1 shells
 l=0 nsto= 1
    1       1.200000000000        1.000000000000
 46 H     1 shells
 l=0 nsto= 1
    1       1.200000000000        1.000000000000
 47 H     1 shells
 l=0 nsto= 1
    1       1.200000000000        1.000000000000
 48 H     1 shells
 l=0 nsto= 1
    1       1.200000000000        1.000000000000
 49 H     1 shells
 l=0 nsto= 1
    1       1.200000000000        1.000000000000
 50 H     1 shells
 l=0 nsto= 1
    1       1.200000000000        1.000000000000
 51 H     1 shells
 l=0 nsto= 1
    1       1.200000000000        1.000000000000
 52 H     1 shells
 l=0 nsto= 1
    1       1.200000000000        1.000000000000
 53 H     1 shells
 l=0 nsto= 1
    1       1.200000000000        1.000000000000
------------------------------------------------------------------------------
                           ORCA NDO INTEGRAL CALCULATION
------------------------------------------------------------------------------

--------------
NDO PARAMETERS
--------------

Gamma integral treatment              ... Mataga-Nishimoto
Nuclear repulsuion treatment          ... Direct (ZA*ZB/RAB)
Interaction factors:
s-s (sigma) =    1.0000
s-p (sigma) =    1.0000
s-d (sigma) =    1.0000
p-p (sigma) =    1.2670  p-p(pi) =    0.5850
p-d (sigma) =    1.0000  p-d(pi) =    1.0000
d-d (sigma) =    1.0000  d-d(pi) =    1.0000 d-d (delta) =    1.0000

fGamma parameter for Mataga-Nishimoto gamma integrals:    1.2000

--------------------------
Parameters for Element H :
--------------------------
 One-electron parameters (in eV)
  U(s)  =   -13.060000 Beta(s) =    12.000000 Neff(s) =     1.000000
 One-center electron repulsion parameters (in eV)
  G(s,s)=    12.850000
--------------------------
Parameters for Element C :
--------------------------
 One-electron parameters (in eV)
  U(s)  =   -50.870766 Beta(s) =    17.000000 Neff(s) =     2.000000
  U(p)  =   -41.599980 Beta(p) =    17.000000 Neff(p) =     2.000000 
 One-center electron repulsion parameters (in eV)
  G(s,s)=    11.110000
  G(s,p)=    11.110000 G(p,p)  =    11.110000
 Slater-Condon parameters (in eV)
 F2(p,p)=     4.5098 G1(s,p)=    6.8977
--------------------------
Parameters for Element S :
--------------------------
 One-electron parameters (in eV)
  U(s)  =   -69.509597 Beta(s) =    15.000000 Neff(s) =     2.000000
  U(p)  =   -60.725746 Beta(p) =    15.000000 Neff(p) =     4.000000 
 One-center electron repulsion parameters (in eV)
  G(s,s)=    10.090000
  G(s,p)=    10.090000 G(p,p)  =    10.090000
 Slater-Condon parameters (in eV)
 F2(p,p)=     4.5377 G1(s,p)=    3.0756

 Number of atoms                    ....   54
 Number of basis functions          ....  120

 Overlap integrals                  .... done
 One electron matrix                .... done
 Nuclear repulsion                  .... done
 Integral list                      .... done
 Electron-electron repulsion        .... done
-------------------------------------------------------------------------------
                                 ORCA SCF
-------------------------------------------------------------------------------

------------
SCF SETTINGS
------------
Hamiltonian:
 ZDO-Hamiltonian        Method          .... INDO


General Settings:
 Integral files         IntName         .... /Users/mattyjones/GoogleDrive/Boise/Code/MorphCT/tests/output_EZ/donor_polymer/chromophores/input_orca/pair/00003-00020
 Hartree-Fock type      HFTyp           .... RHF
 Total Charge           Charge          ....    0
 Multiplicity           Mult            ....    1
 Number of Electrons    NEL             ....  124
 Basis Dimension        Dim             ....  120
 Nuclear Repulsion      ENuc            ....    643.4962644268 Eh

Convergence Acceleration:
 DIIS                   CNVDIIS         .... on
   Start iteration      DIISMaxIt       ....    12
   Startup error        DIISStart       ....  0.200000
   # of expansion vecs  DIISMaxEq       ....     5
   Bias factor          DIISBfac        ....   1.050
   Max. coefficient     DIISMaxC        ....  10.000
 Newton-Raphson         CNVNR           .... off
 SOSCF                  CNVSOSCF        .... on
   Start iteration      SOSCFMaxIt      ....   150
   Startup grad/error   SOSCFStart      ....  0.003300
 Level Shifting         CNVShift        .... on
   Level shift para.    LevelShift      ....    0.2500
   Turn off err/grad.   ShiftErr        ....    0.0010
 Zerner damping         CNVZerner       .... off
 Static damping         CNVDamp         .... on
   Fraction old density DampFac         ....    0.7000
   Max. Damping (<1)    DampMax         ....    0.9800
   Min. Damping (>=0)   DampMin         ....    0.0000
   Turn off err/grad.   DampErr         ....    0.1000
 Fernandez-Rico         CNVRico         .... off

SCF Procedure:
 Maximum # iterations   MaxIter         ....   125
 SCF integral mode      SCFMode         .... Conventional
 Integral Buffer length BufferLength    .... 1048576
 Integral index format  IndFormat       ....     0
 Integral value format  ValFormat       ....     0
 Integral Storage       Thresh          ....  1.000e-08 Eh

Convergence Tolerance:
 Convergence Check Mode ConvCheckMode   .... Total+1el-Energy
 Energy Change          TolE            ....  1.000e-06 Eh
 1-El. energy change                    ....  1.000e-03 Eh
 Orbital Gradient       TolG            ....  5.000e-05
 Orbital Rotation angle TolX            ....  5.000e-05
 DIIS Error             TolErr          ....  1.000e-06


Diagonalization of the overlap matrix:
Smallest eigenvalue                        ... 1.692e-01
Time for diagonalization                   ...    0.003 sec
Threshold for overlap eigenvalues          ... 1.000e-08
Number of eigenvalues below threshold      ... 0
Time for construction of square roots      ...    0.001 sec
Total time needed                          ...    0.004 sec

-------------------------------
INITIAL GUESS: EXTENDED HUECKEL
-------------------------------
EHT matrix was read from disk
EHT matrix was diagonalized
Initial density was built
                      ------------------
                      INITIAL GUESS DONE
                      ------------------

 InCore treatment chosen:
   Memory dedicated               ...    1024 MB
   Memory needed                  ...      0 MB
   Number of tiny    integrals    ...       0
   Number of small   integrals    ...       0
   Number of regular integrals    ...    7392

--------------
SCF ITERATIONS
--------------
ITER       Energy         Delta-E        Max-DP      RMS-DP      [F,P]     Damp
  0    -22.7731117189   0.000000000000 0.04353912  0.00147295  0.1081660 0.7000
  1    -22.8161207724  -0.043009053535 0.04116629  0.00138960  0.0760011 0.7000
                               ***Turning on DIIS***
  2    -22.8479046328  -0.031783860386 0.10630870  0.00356735  0.0501991 0.0000
  3    -22.9308018717  -0.082897238898 0.01989955  0.00073757  0.0224148 0.0000
  4    -22.9153334077   0.015468463981 0.01284211  0.00051337  0.0076820 0.0000
  5    -22.9331571143  -0.017823706620 0.00902834  0.00034912  0.0044863 0.0000
  6    -22.9349679302  -0.001810815901 0.00676912  0.00024902  0.0024438 0.0000
                      *** Initiating the SOSCF procedure ***
                           *** Shutting down DIIS ***
                      *** Re-Reading the Fockian *** 
                      *** Removing any level shift *** 
ITER      Energy       Delta-E        Grad      Rot      Max-DP    RMS-DP
  7    -22.93141034   0.0035575913  0.003151  0.003151  0.004063  0.000142
  8    -22.92930957   0.0021007696  0.000898  0.002531  0.001960  0.000067
  9    -22.92932611  -0.0000165431  0.000401  0.002559  0.002238  0.000073
 10    -22.92933242  -0.0000063085  0.000035  0.000101  0.000159  0.000005
                 **** Energy Check signals convergence ****
              ***Rediagonalizing the Fockian in SOSCF/NRSCF***

               *****************************************************
               *                     SUCCESS                       *
               *           SCF CONVERGED AFTER  11 CYCLES          *
               *****************************************************


----------------
TOTAL SCF ENERGY
----------------

Total Energy       :          -22.92933249 Eh            -623.93886 eV

Components:
Nuclear Repulsion  :          643.49626443 Eh           17510.42357 eV
Electronic Energy  :         -666.42559691 Eh          -18134.36243 eV

One Electron Energy:        -1242.52174487 Eh          -33810.73558 eV
Two Electron Energy:          576.09614795 Eh           15676.37316 eV


---------------
SCF CONVERGENCE
---------------

  Last Energy change         ...   -6.5936e-08  Tolerance :   1.0000e-06
  Last MAX-Density change    ...    6.8993e-05  Tolerance :   1.0000e-05
  Last RMS-Density change    ...    1.7664e-06  Tolerance :   1.0000e-06
  Last Orbital Gradient      ...    1.6404e-05  Tolerance :   5.0000e-05
  Last Orbital Rotation      ...    3.5582e-05  Tolerance :   5.0000e-05

             **** THE GBW FILE WAS UPDATED (/Users/mattyjones/GoogleDrive/Boise/Code/MorphCT/tests/output_EZ/donor_polymer/chromophores/input_orca/pair/00003-00020.gbw) ****
             **** DENSITY FILE WAS UPDATED (/Users/mattyjones/GoogleDrive/Boise/Code/MorphCT/tests/output_EZ/donor_polymer/chromophores/input_orca/pair/00003-00020.scfp.tmp) ****
             **** ENERGY FILE WAS UPDATED (/Users/mattyjones/GoogleDrive/Boise/Code/MorphCT/tests/output_EZ/donor_polymer/chromophores/input_orca/pair/00003-00020.en.tmp) ****
----------------
ORBITAL ENERGIES
----------------

  NO   OCC          E(Eh)            E(eV) 
   0   2.0000      -1.558385       -42.4058 
   1   2.0000      -1.557371       -42.3782 
   2   2.0000      -1.413029       -38.4505 
   3   2.0000      -1.399421       -38.0802 
   4   2.0000      -1.292035       -35.1581 
   5   2.0000      -1.279276       -34.8109 
   6   2.0000      -1.191298       -32.4169 
   7   2.0000      -1.169529       -31.8245 
   8   2.0000      -1.115047       -30.3420 
   9   2.0000      -1.098591       -29.8942 
  10   2.0000      -1.062513       -28.9124 
  11   2.0000      -1.029294       -28.0085 
  12   2.0000      -0.983714       -26.7682 
  13   2.0000      -0.949854       -25.8468 
  14   2.0000      -0.912274       -24.8242 
  15   2.0000      -0.887616       -24.1533 
  16   2.0000      -0.854783       -23.2598 
  17   2.0000      -0.847837       -23.0708 
  18   2.0000      -0.834201       -22.6998 
  19   2.0000      -0.821274       -22.3480 
  20   2.0000      -0.785221       -21.3670 
  21   2.0000      -0.774483       -21.0748 
  22   2.0000      -0.729718       -19.8566 
  23   2.0000      -0.728594       -19.8261 
  24   2.0000      -0.703389       -19.1402 
  25   2.0000      -0.698282       -19.0012 
  26   2.0000      -0.680583       -18.5196 
  27   2.0000      -0.664784       -18.0897 
  28   2.0000      -0.656018       -17.8511 
  29   2.0000      -0.638827       -17.3834 
  30   2.0000      -0.608854       -16.5678 
  31   2.0000      -0.608659       -16.5625 
  32   2.0000      -0.586884       -15.9699 
  33   2.0000      -0.586167       -15.9504 
  34   2.0000      -0.585043       -15.9198 
  35   2.0000      -0.576287       -15.6816 
  36   2.0000      -0.566145       -15.4056 
  37   2.0000      -0.560535       -15.2529 
  38   2.0000      -0.547930       -14.9099 
  39   2.0000      -0.541071       -14.7233 
  40   2.0000      -0.533287       -14.5115 
  41   2.0000      -0.532603       -14.4929 
  42   2.0000      -0.523923       -14.2567 
  43   2.0000      -0.522363       -14.2142 
  44   2.0000      -0.514325       -13.9955 
  45   2.0000      -0.500065       -13.6075 
  46   2.0000      -0.496921       -13.5219 
  47   2.0000      -0.490909       -13.3583 
  48   2.0000      -0.485705       -13.2167 
  49   2.0000      -0.485256       -13.2045 
  50   2.0000      -0.475602       -12.9418 
  51   2.0000      -0.473857       -12.8943 
  52   2.0000      -0.472494       -12.8572 
  53   2.0000      -0.462919       -12.5967 
  54   2.0000      -0.461851       -12.5676 
  55   2.0000      -0.459565       -12.5054 
  56   2.0000      -0.435796       -11.8586 
  57   2.0000      -0.434345       -11.8191 
  58   2.0000      -0.356499        -9.7008 
  59   2.0000      -0.351894        -9.5755 
  60   2.0000      -0.305281        -8.3071 
  61   2.0000      -0.304479        -8.2853 
  62   0.0000       0.002819         0.0767 
  63   0.0000       0.007416         0.2018 
  64   0.0000       0.055998         1.5238 
  65   0.0000       0.065482         1.7818 
  66   0.0000       0.074968         2.0400 
  67   0.0000       0.075845         2.0638 
  68   0.0000       0.087411         2.3786 
  69   0.0000       0.091956         2.5022 
  70   0.0000       0.103010         2.8030 
  71   0.0000       0.103346         2.8122 
  72   0.0000       0.107580         2.9274 
  73   0.0000       0.109051         2.9674 
  74   0.0000       0.125481         3.4145 
  75   0.0000       0.126942         3.4543 
  76   0.0000       0.140942         3.8352 
  77   0.0000       0.141644         3.8543 
  78   0.0000       0.156563         4.2603 
  79   0.0000       0.158255         4.3063 
  80   0.0000       0.164902         4.4872 
  81   0.0000       0.167068         4.5462 
  82   0.0000       0.168483         4.5846 
  83   0.0000       0.174823         4.7572 
  84   0.0000       0.199451         5.4273 
  85   0.0000       0.202697         5.5157 
  86   0.0000       0.231763         6.3066 
  87   0.0000       0.231794         6.3074 
  88   0.0000       0.234708         6.3867 
  89   0.0000       0.235443         6.4067 
  90   0.0000       0.236430         6.4336 
  91   0.0000       0.236560         6.4371 
  92   0.0000       0.239028         6.5043 
  93   0.0000       0.239595         6.5197 
  94   0.0000       0.241391         6.5686 
  95   0.0000       0.241764         6.5787 
  96   0.0000       0.244417         6.6509 
  97   0.0000       0.244683         6.6581 
  98   0.0000       0.245660         6.6848 
  99   0.0000       0.246108         6.6970 
 100   0.0000       0.247290         6.7291 
 101   0.0000       0.252112         6.8603 
 102   0.0000       0.262623         7.1463 
 103   0.0000       0.263953         7.1825 
 104   0.0000       0.265570         7.2265 
 105   0.0000       0.265683         7.2296 
 106   0.0000       0.270065         7.3488 
 107   0.0000       0.288520         7.8510 
 108   0.0000       0.299611         8.1528 
 109   0.0000       0.307518         8.3680 
 110   0.0000       0.309268         8.4156 
 111   0.0000       0.309992         8.4353 
 112   0.0000       0.334899         9.1131 
 113   0.0000       0.336368         9.1531 
 114   0.0000       0.350195         9.5293 
 115   0.0000       0.354362         9.6427 
 116   0.0000       0.400766        10.9054 
 117   0.0000       0.421213        11.4618 
 118   0.0000       0.430293        11.7089 
 119   0.0000       0.438306        11.9269 
-------
TIMINGS
-------

Total SCF time: 0 days 0 hours 0 min 0 sec 

Total time                  ....       0.122 sec
Sum of individual times     ....       0.100 sec  ( 81.4%)

Fock matrix formation       ....       0.047 sec  ( 38.4%)
Diagonalization             ....       0.024 sec  ( 19.9%)
Density matrix formation    ....       0.005 sec  (  4.3%)
Population analysis         ....       0.000 sec  (  0.0%)
Initial guess               ....       0.003 sec  (  2.4%)
Orbital Transformation      ....       0.000 sec  (  0.0%)
Orbital Orthonormalization  ....       0.000 sec  (  0.0%)
DIIS solution               ....       0.014 sec  ( 11.4%)
SOSCF solution              ....       0.006 sec  (  5.0%)

-------------------------   --------------------
FINAL SINGLE POINT ENERGY       -22.929332486831
-------------------------   --------------------


                            ***************************************
                            *     ORCA property calculations      *
                            ***************************************

                                    ---------------------
                                    Active property flags
                                    ---------------------
   (+) Dipole Moment


------------------------------------------------------------------------------
                       ORCA ELECTRIC PROPERTIES CALCULATION
------------------------------------------------------------------------------

Dipole Moment Calculation                       ... on
Quadrupole Moment Calculation                   ... off
Polarizability Calculation                      ... off
GBWName                                         ... /Users/mattyjones/GoogleDrive/Boise/Code/MorphCT/tests/output_EZ/donor_polymer/chromophores/input_orca/pair/00003-00020.gbw
Electron density file                           ... /Users/mattyjones/GoogleDrive/Boise/Code/MorphCT/tests/output_EZ/donor_polymer/chromophores/input_orca/pair/00003-00020.scfp.tmp

-------------
DIPOLE MOMENT
-------------
                                X             Y             Z
Electronic contribution:   -180.50318    -192.08208     -49.32456
Nuclear contribution   :     97.72276     103.56040      26.22476
                        -----------------------------------------
Total Dipole Moment    :    -82.78042     -88.52167     -23.09979
                        -----------------------------------------
Magnitude (a.u.)       :    123.37862
Magnitude (Debye)      :    313.60354


Timings for individual modules:

Sum of individual times         ...        0.219 sec (=   0.004 min)
STO integral calculation        ...        0.047 sec (=   0.001 min)  21.5 %
SCF iterations                  ...        0.172 sec (=   0.003 min)  78.5 %
                             ****ORCA TERMINATED NORMALLY****
TOTAL RUN TIME: 0 days 0 hours 0 minutes 0 seconds 526 msec

