
                                 *****************
                                 * O   R   C   A *
                                 *****************

           --- An Ab Initio, DFT and Semiempirical electronic structure package ---

                  #######################################################
                  #                        -***-                        #
                  #  Department of molecular theory and spectroscopy    #
                  #              Directorship: Frank Neese              #
                  # Max Planck Institute for Chemical Energy Conversion #
                  #                  D-45470 Muelheim/Ruhr              #
                  #                       Germany                       #
                  #                                                     #
                  #                  All rights reserved                #
                  #                        -***-                        #
                  #######################################################


                         Program Version 3.0.3 - RELEASE   -


 With contributions from (in alphabetic order):
   Ute Becker             : Parallelization
   Dmytro Bykov           : SCF Hessian
   Dmitry Ganyushin       : Spin-Orbit,Spin-Spin,Magnetic field MRCI
   Andreas Hansen         : Spin unrestricted coupled pair/coupled cluster methods
   Dimitrios Liakos       : Extrapolation schemes; parallel MDCI
   Robert Izsak           : Overlap fitted RIJCOSX, COSX-SCS-MP3
   Christian Kollmar      : KDIIS, OOCD, Brueckner-CCSD(T), CCSD density
   Simone Kossmann        : Meta GGA functionals, TD-DFT gradient, OOMP2, MP2 Hessian
   Taras Petrenko         : DFT Hessian,TD-DFT gradient, ASA and ECA modules, normal mode analysis, Resonance Raman, ABS, FL, XAS/XES, NRVS
   Christoph Reimann      : Effective Core Potentials
   Michael Roemelt        : Restricted open shell CIS
   Christoph Riplinger    : Improved optimizer, TS searches, QM/MM, DLPNO-CCSD
   Barbara Sandhoefer     : DKH picture change effects
   Igor Schapiro          : Molecular dynamics
   Kantharuban Sivalingam : CASSCF convergence, NEVPT2
   Boris Wezisla          : Elementary symmetry handling
   Frank Wennmohs         : Technical directorship


 We gratefully acknowledge several colleagues who have allowed us to
 interface, adapt or use parts of their codes:
   Stefan Grimme, W. Hujo, H. Kruse, T. Risthaus : VdW corrections, initial TS optimization,
                                                   DFT functionals, gCP
   Ed Valeev                                     : LibInt (2-el integral package), F12 methods
   Garnet Chan, S. Sharma, R. Olivares           : DMRG
   Ulf Ekstrom                                   : XCFun DFT Library
   Mihaly Kallay                                 : mrcc  (arbitrary order and MRCC methods)
   Andreas Klamt, Michael Diedenhofen            : otool_cosmo (COSMO solvation model)
   Frank Weinhold                                : gennbo (NPA and NBO analysis)
   Christopher J. Cramer and Donald G. Truhlar   : smd solvation model


 Your calculation uses the libint2 library for the computation of 2-el integrals
 For citations please refer to: http://libint.valeyev.net

 This ORCA versions uses:
   CBLAS   interface :  Fast vector & matrix operations
   LAPACKE interface :  Fast linear algebra routines
   SCALAPACK package :  Parallel linear algebra routines


leaving
================================================================================
                                        WARNINGS
                       Please study these warnings very carefully!
================================================================================
Now building the actual basis set

WARNING: Direct SCF is incompatible with Method<>HF and Method<>DFT
  ===> : conventional SCF is chosen

WARNING: The NDO methods need Guess=HUECKEL or Guess=HCORE or Guess=MOREAD
  ===> : Guess is set to Hueckel

WARNING: The NDO methods need %rel::SOCType==1
  ===> : %rel::SOCType is set to 1

WARNING: The NDO methods cannot have frozencore=1
  ===> : %method FrozenCore=0 end


INFO   : the flag for use of LIBINT has been found!

================================================================================
                                       INPUT FILE
================================================================================
NAME = /Users/mattyjones/GoogleDrive/Boise/Code/MorphCT/tests/output_EZ/donor_polymer/chromophores/input_orca/pair/00007-00019.inp
|  1> # ================================================================
|  2> # Orca input file made by Matty Jones
|  3> # ================================================================
|  4> ! ZINDO/S 
|  5> ! NOPOP
|  6> ! NOMOPRINT
|  7> * xyz 0   1
|  8>  C  -23.23909  3.21165  2.50642
|  9>  C  -21.98970  3.83034  2.44216
| 10>  C  -21.00838  3.25575  3.30883
| 11>  C  -21.48530  2.17790  4.06124
| 12>  S  -23.07371  1.99512  3.62078
| 13>  H  -21.81606  4.81941  1.91212
| 14>  C  -19.55345  3.94695  3.26836
| 15>  C  -18.97493  4.30072  1.67766
| 16>  C  -19.27088  5.74865  0.78424
| 17>  H  -19.37247  6.57340  1.59218
| 18>  H  -18.29040  5.93566  0.19443
| 19>  H  -17.82615  4.23496  1.75919
| 20>  H  -19.36128  3.44797  1.00590
| 21>  H  -19.55501  4.94325  3.86273
| 22>  H  -18.76568  3.23160  3.73548
| 23>  C  -20.50975  5.94514  -0.26915
| 24>  C  -20.44570  7.36447  -1.21122
| 25>  C  -19.87272  7.30036  -2.79545
| 26>  H  -20.52262  6.56645  -3.40934
| 27>  H  -18.77185  6.94822  -2.79518
| 28>  H  -19.94175  8.35900  -3.26151
| 29>  H  -21.49209  7.83288  -1.23325
| 30>  H  -19.69805  8.03898  -0.65992
| 31>  H  -20.54241  5.04945  -0.99622
| 32>  H  -21.51335  6.01678  0.29234
| 33>  C  25.16781  -3.87773  -2.63402
| 34>  C  24.09030  -4.67843  -2.25223
| 35>  C  23.03885  -3.96737  -1.59411
| 36>  C  23.28736  -2.59830  -1.45554
| 37>  S  24.77402  -2.34321  -2.14488
| 38>  H  24.04938  -5.79879  -2.47217
| 39>  C  21.82106  -4.96194  -1.18176
| 40>  C  20.17186  -4.78735  -1.52642
| 41>  C  19.07787  -4.06212  -0.48206
| 42>  H  19.62528  -3.23585  0.10847
| 43>  H  18.23179  -3.58653  -1.10786
| 44>  H  20.12767  -4.18044  -2.51401
| 45>  H  19.77453  -5.85089  -1.74228
| 46>  H  21.84014  -5.03896  -0.00448
| 47>  H  22.06516  -6.03644  -1.57490
| 48>  C  18.45099  -5.16069  0.55595
| 49>  C  17.12513  -6.09140  0.05047
| 50>  C  17.47373  -7.63276  -0.53625
| 51>  H  16.48484  -8.22576  -0.64854
| 52>  H  18.16552  -8.17970  0.21309
| 53>  H  17.99595  -7.55071  -1.56394
| 54>  H  16.58670  -5.51197  -0.78778
| 55>  H  16.41622  -6.21048  0.95159
| 56>  H  19.28513  -5.90895  0.85080
| 57>  H  18.11131  -4.60237  1.51218
| 58>  H  -24.11007  3.46588  1.95836
| 59>  H  -20.94477  1.59890  4.76564
| 60>  H  26.05157  -4.18571  -3.13175
| 61>  H  22.65743  -1.87496  -1.00436
| 62> *
| 63> 
| 64>                          ****END OF INPUT****
================================================================================

                       ****************************
                       * Single Point Calculation *
                       ****************************

---------------------------------
CARTESIAN COORDINATES (ANGSTROEM)
---------------------------------
  C    -23.239090    3.211650    2.506420
  C    -21.989700    3.830340    2.442160
  C    -21.008380    3.255750    3.308830
  C    -21.485300    2.177900    4.061240
  S    -23.073710    1.995120    3.620780
  H    -21.816060    4.819410    1.912120
  C    -19.553450    3.946950    3.268360
  C    -18.974930    4.300720    1.677660
  C    -19.270880    5.748650    0.784240
  H    -19.372470    6.573400    1.592180
  H    -18.290400    5.935660    0.194430
  H    -17.826150    4.234960    1.759190
  H    -19.361280    3.447970    1.005900
  H    -19.555010    4.943250    3.862730
  H    -18.765680    3.231600    3.735480
  C    -20.509750    5.945140   -0.269150
  C    -20.445700    7.364470   -1.211220
  C    -19.872720    7.300360   -2.795450
  H    -20.522620    6.566450   -3.409340
  H    -18.771850    6.948220   -2.795180
  H    -19.941750    8.359000   -3.261510
  H    -21.492090    7.832880   -1.233250
  H    -19.698050    8.038980   -0.659920
  H    -20.542410    5.049450   -0.996220
  H    -21.513350    6.016780    0.292340
  C     25.167810   -3.877730   -2.634020
  C     24.090300   -4.678430   -2.252230
  C     23.038850   -3.967370   -1.594110
  C     23.287360   -2.598300   -1.455540
  S     24.774020   -2.343210   -2.144880
  H     24.049380   -5.798790   -2.472170
  C     21.821060   -4.961940   -1.181760
  C     20.171860   -4.787350   -1.526420
  C     19.077870   -4.062120   -0.482060
  H     19.625280   -3.235850    0.108470
  H     18.231790   -3.586530   -1.107860
  H     20.127670   -4.180440   -2.514010
  H     19.774530   -5.850890   -1.742280
  H     21.840140   -5.038960   -0.004480
  H     22.065160   -6.036440   -1.574900
  C     18.450990   -5.160690    0.555950
  C     17.125130   -6.091400    0.050470
  C     17.473730   -7.632760   -0.536250
  H     16.484840   -8.225760   -0.648540
  H     18.165520   -8.179700    0.213090
  H     17.995950   -7.550710   -1.563940
  H     16.586700   -5.511970   -0.787780
  H     16.416220   -6.210480    0.951590
  H     19.285130   -5.908950    0.850800
  H     18.111310   -4.602370    1.512180
  H    -24.110070    3.465880    1.958360
  H    -20.944770    1.598900    4.765640
  H     26.051570   -4.185710   -3.131750
  H     22.657430   -1.874960   -1.004360

----------------------------
CARTESIAN COORDINATES (A.U.)
----------------------------
  NO LB      ZA    FRAG    MASS        X           Y           Z
   0 C     4.0000    0    12.011        -43.915515701548024          6.069138938008188          4.736447376582904
   1 C     4.0000    0    12.011        -41.554510767088146          7.238293599803927          4.615013575217124
   2 C     4.0000    0    12.011        -39.700084717348545          6.152475860514115          6.252782523702655
   3 C     4.0000    0    12.011        -40.601332905138264          4.115634547067095          7.674631364126344
   4 S     6.0000    0    32.060        -43.602992793520123          3.770230404308968          6.842282591179389
   5 H     1.0000    0     1.008        -41.226378721194060          9.107365027081419          3.613383135193504
   6 C     4.0000    0    12.011        -36.950665473322502          7.458654564280485          6.176305307062862
   7 C     4.0000    0    12.011        -35.857421110326378          8.127182978677805          3.170317945834327
   8 C     4.0000    0    12.011        -36.416685559660365         10.863374139766403          1.481998823266403
   9 H     1.0000    0     1.008        -36.608662837605429         12.421925768717957          3.008784155906739
  10 H     1.0000    0     1.008        -34.563846879873267         11.216771824071017          0.367419452218309
  11 H     1.0000    0     1.008        -33.686541522200315          8.002914588111144          3.324387317532927
  12 H     1.0000    0     1.008        -36.587516802166853          6.515719017976458          1.900875518111387
  13 H     1.0000    0     1.008        -36.953613446091417          9.341388711506227          7.299501829281636
  14 H     1.0000    0     1.008        -35.461995916803353          6.106838974379916          7.059034178740157
  15 C     4.0000    0    12.011        -38.757810575191392         11.234686427820591         -0.508619788944905
  16 C     4.0000    0    12.011        -38.636773616313732         13.916831421479040         -2.288874087928098
  17 C     4.0000    0    12.011        -37.553998336099539         13.795681079033349         -5.282634921070163
  18 H     1.0000    0     1.008        -38.782131350534961         12.408792172087203         -6.442718897423080
  19 H     1.0000    0     1.008        -35.473655527049651         13.130232918234320         -5.282124695014005
  20 H     1.0000    0     1.008        -37.684446131124119         15.796220753447743         -6.163360683045501
  21 H     1.0000    0     1.008        -40.614164145587594         14.801998039869094         -2.330504754658384
  22 H     1.0000    0     1.008        -37.223919872287510         15.191470596070264         -1.247068070297312
  23 H     1.0000    0     1.008        -38.819529030725263          9.542077626928664         -1.882582969135029
  24 H     1.0000    0     1.008        -40.654339723194759         11.370066408054708          0.552442537990539
  25 C     4.0000    0    12.011         47.560268290564615         -7.327847721290455         -4.977576431271255
  26 C     4.0000    0    12.011         45.524069484003128         -8.840951436721200         -4.256097890601461
  27 C     4.0000    0    12.011         43.537116940491629         -7.497242771935156         -3.012431327345206
  28 C     4.0000    0    12.011         44.006732782032401         -4.910075413767588         -2.750571976967739
  29 S     6.0000    0    32.060         46.816113036287767         -4.428025174265616         -4.053235790125014
  30 H     1.0000    0     1.008         45.446741890603072        -10.958125008121215         -4.671724256496101
  31 C     4.0000    0    12.011         41.235827351863669         -9.376707692949216         -2.233202756022778
  32 C     4.0000    0    12.011         38.119291011800740         -9.046780407227905         -2.884515765340077
  33 C     4.0000    0    12.011         36.051949518552227         -7.676294323124195         -0.910961380118079
  34 H     1.0000    0     1.008         37.086404501522061         -6.114870310449082          0.204978593746438
  35 H     1.0000    0     1.008         34.453090031164137         -6.777559471092587         -2.093551994725998
  36 H     1.0000    0     1.008         38.035784013942759         -7.899886719289757         -4.750790397939365
  37 H     1.0000    0     1.008         37.368446127009804        -11.056579739698511         -3.292432048608319
  38 H     1.0000    0     1.008         41.271883326498887         -9.522254399783831         -0.008465973079967
  39 H     1.0000    0     1.008         41.697109501153840        -11.407218423847601         -2.976129688312579
  40 C     4.0000    0    12.011         34.867317999719674         -9.752290762066064          1.050593244153520
  41 C     4.0000    0    12.011         32.361805707798844        -11.511077772167912          0.095374477979006
  42 C     4.0000    0    12.011         33.020564238083793        -14.423826045948774         -1.013365639315271
  43 H     1.0000    0     1.008         31.151832961510404        -15.544433643364073         -1.225562986893288
  44 H     1.0000    0     1.008         34.327857880269178        -15.457392857635663          0.402681741877280
  45 H     1.0000    0     1.008         34.007417019740153        -14.268774016660533         -2.955418289884803
  46 H     1.0000    0     1.008         31.344320465511625        -10.416113758389921         -1.488688453780484
  47 H     1.0000    0     1.008         31.022159954200728        -11.736106360195254          1.798244491778124
  48 H     1.0000    0     1.008         36.443614157068744        -11.166297239033980          1.607778994740201
  49 H     1.0000    0     1.008         34.225415826549302         -8.697218866975151          2.857606065193039
  50 H     1.0000    0     1.008        -45.561429369670755          6.549564013034987          3.700764071626022
  51 H     1.0000    0     1.008        -39.579879237969813          3.021483115526689          9.005754452860474
  52 H     1.0000    0     1.008         49.230332658678869         -7.909845576015523         -5.918149819907880
  53 H     1.0000    0     1.008         42.816337598491387         -3.543160912056990         -1.897965339865148

--------------------------------
INTERNAL COORDINATES (ANGSTROEM)
--------------------------------
 C      0   0   0   0.000000     0.000     0.000
 C      1   0   0   1.395665     0.000     0.000
 C      2   1   0   1.429776   114.101     0.000
 C      3   2   1   1.398333   113.693     0.000
 S      1   2   3   1.658039   105.480     0.000
 H      2   1   3   1.135497   122.991   191.448
 C      3   2   1   1.611278   115.603   180.260
 C      7   3   2   1.729209   114.391   315.784
 C      8   7   3   1.726930   126.164    87.992
 H      9   8   7   1.159008   104.538    30.531
 H      9   8   7   1.159392   104.685   144.314
 H      8   7   3   1.153545   104.862   209.377
 H      8   7   3   1.152263   105.826   325.051
 H      7   3   2   1.160126   110.752    77.077
 H      7   3   2   1.162114   109.752   197.325
 C      9   8   7   1.637998   124.256   267.344
 C     16   9   8   1.704728   115.268   189.471
 C     17  16   9   1.685883   120.027    99.491
 H     18  17  16   1.156657   109.385    58.873
 H     18  17  16   1.155819   109.577   298.216
 H     18  17  16   1.158747   108.843   178.398
 H     17  16   9   1.146658   108.448   224.058
 H     17  16   9   1.147988   104.375   342.816
 H     16   9   8   1.154105   109.478   310.652
 H     16   9   8   1.152222   110.661    71.193
 C     12   8   7  43.972680   167.731   129.495
 C     26  12   8   1.395676    47.442   290.930
 C     27  26  12   1.429782   114.101   329.709
 C     28  27  26   1.398325   113.693     0.000
 S     26  12   8   1.658035    64.377   143.553
 H     27  26  12   1.142477   122.519   148.350
 C     28  27  26   1.625489   111.310   179.933
 C     32  28  27   1.693851   127.934   232.216
 C     33  32  28   1.677337   123.566   266.324
 H     34  33  32   1.153735   108.595    32.156
 H     34  33  32   1.154843   108.572   150.867
 H     33  32  28   1.160011   105.322    28.263
 H     33  32  28   1.155675   106.135   142.668
 H     32  28  27   1.179951   106.316   110.478
 H     32  28  27   1.169912   108.687   357.016
 C     34  33  32   1.636246   110.767   271.567
 C     41  34  33   1.696949   118.594   275.782
 C     42  41  34   1.685691   116.334    97.416
 H     43  42  41   1.158517   108.981   169.115
 H     43  42  41   1.157250   109.293    49.684
 H     43  42  41   1.155678   109.758   289.177
 H     42  41  34   1.152523   107.814   336.462
 H     42  41  34   1.152714   107.716   218.424
 H     41  34  33   1.158714   108.614    37.450
 H     41  34  33   1.158223   108.208   154.691
 H      1   2   3   1.060004   127.260   180.001
 H      4   3   2   1.059997   127.206   180.000
 H     26  12   8   1.060009   156.304    18.242
 H     29  28  27   1.059998   127.206   180.000

---------------------------
INTERNAL COORDINATES (A.U.)
---------------------------
 C      0   0   0   0.000000     0.000     0.000
 C      1   0   0   2.637425     0.000     0.000
 C      2   1   0   2.701885   114.101     0.000
 C      3   2   1   2.642466   113.693     0.000
 S      1   2   3   3.133240   105.480     0.000
 H      2   1   3   2.145778   122.991   191.448
 C      3   2   1   3.044874   115.603   180.260
 C      7   3   2   3.267732   114.391   315.784
 C      8   7   3   3.263425   126.164    87.992
 H      9   8   7   2.190208   104.538    30.531
 H      9   8   7   2.190933   104.685   144.314
 H      8   7   3   2.179885   104.862   209.377
 H      8   7   3   2.177462   105.826   325.051
 H      7   3   2   2.192320   110.752    77.077
 H      7   3   2   2.196077   109.752   197.325
 C      9   8   7   3.095368   124.256   267.344
 C     16   9   8   3.221468   115.268   189.471
 C     17  16   9   3.185857   120.027    99.491
 H     18  17  16   2.185764   109.385    58.873
 H     18  17  16   2.184181   109.577   298.216
 H     18  17  16   2.189715   108.843   178.398
 H     17  16   9   2.166870   108.448   224.058
 H     17  16   9   2.169383   104.375   342.816
 H     16   9   8   2.180942   109.478   310.652
 H     16   9   8   2.177385   110.661    71.193
 C     12   8   7  83.096324   167.731   129.495
 C     26  12   8   2.637446    47.442   290.930
 C     27  26  12   2.701896   114.101   329.709
 C     28  27  26   2.642450   113.693     0.000
 S     26  12   8   3.133232    64.377   143.553
 H     27  26  12   2.158969   122.519   148.350
 C     28  27  26   3.071729   111.310   179.933
 C     32  28  27   3.200915   127.934   232.216
 C     33  32  28   3.169708   123.566   266.324
 H     34  33  32   2.180244   108.595    32.156
 H     34  33  32   2.182337   108.572   150.867
 H     33  32  28   2.192104   105.322    28.263
 H     33  32  28   2.183909   106.135   142.668
 H     32  28  27   2.229784   106.316   110.478
 H     32  28  27   2.210813   108.687   357.016
 C     34  33  32   3.092056   110.767   271.567
 C     41  34  33   3.206769   118.594   275.782
 C     42  41  34   3.185494   116.334    97.416
 H     43  42  41   2.189280   108.981   169.115
 H     43  42  41   2.186885   109.293    49.684
 H     43  42  41   2.183916   109.758   289.177
 H     42  41  34   2.177953   107.814   336.462
 H     42  41  34   2.178315   107.716   218.424
 H     41  34  33   2.189653   108.614    37.450
 H     41  34  33   2.188723   108.208   154.691
 H      1   2   3   2.003118   127.260   180.001
 H      4   3   2   2.003103   127.206   180.000
 H     26  12   8   2.003126   156.304    18.242
 H     29  28  27   2.003106   127.206   180.000

----------------------------
SLATER BASIS SET DIM= 120
----------------------------
  0 C     2 shells
 l=0 nsto= 1
    2       1.625000000000        1.000000000000
 l=1 nsto= 1
    2       1.625000000000        1.000000000000
  1 C     2 shells
 l=0 nsto= 1
    2       1.625000000000        1.000000000000
 l=1 nsto= 1
    2       1.625000000000        1.000000000000
  2 C     2 shells
 l=0 nsto= 1
    2       1.625000000000        1.000000000000
 l=1 nsto= 1
    2       1.625000000000        1.000000000000
  3 C     2 shells
 l=0 nsto= 1
    2       1.625000000000        1.000000000000
 l=1 nsto= 1
    2       1.625000000000        1.000000000000
  4 S     2 shells
 l=0 nsto= 1
    3       1.925000000000        1.000000000000
 l=1 nsto= 1
    3       1.925000000000        1.000000000000
  5 H     1 shells
 l=0 nsto= 1
    1       1.200000000000        1.000000000000
  6 C     2 shells
 l=0 nsto= 1
    2       1.625000000000        1.000000000000
 l=1 nsto= 1
    2       1.625000000000        1.000000000000
  7 C     2 shells
 l=0 nsto= 1
    2       1.625000000000        1.000000000000
 l=1 nsto= 1
    2       1.625000000000        1.000000000000
  8 C     2 shells
 l=0 nsto= 1
    2       1.625000000000        1.000000000000
 l=1 nsto= 1
    2       1.625000000000        1.000000000000
  9 H     1 shells
 l=0 nsto= 1
    1       1.200000000000        1.000000000000
 10 H     1 shells
 l=0 nsto= 1
    1       1.200000000000        1.000000000000
 11 H     1 shells
 l=0 nsto= 1
    1       1.200000000000        1.000000000000
 12 H     1 shells
 l=0 nsto= 1
    1       1.200000000000        1.000000000000
 13 H     1 shells
 l=0 nsto= 1
    1       1.200000000000        1.000000000000
 14 H     1 shells
 l=0 nsto= 1
    1       1.200000000000        1.000000000000
 15 C     2 shells
 l=0 nsto= 1
    2       1.625000000000        1.000000000000
 l=1 nsto= 1
    2       1.625000000000        1.000000000000
 16 C     2 shells
 l=0 nsto= 1
    2       1.625000000000        1.000000000000
 l=1 nsto= 1
    2       1.625000000000        1.000000000000
 17 C     2 shells
 l=0 nsto= 1
    2       1.625000000000        1.000000000000
 l=1 nsto= 1
    2       1.625000000000        1.000000000000
 18 H     1 shells
 l=0 nsto= 1
    1       1.200000000000        1.000000000000
 19 H     1 shells
 l=0 nsto= 1
    1       1.200000000000        1.000000000000
 20 H     1 shells
 l=0 nsto= 1
    1       1.200000000000        1.000000000000
 21 H     1 shells
 l=0 nsto= 1
    1       1.200000000000        1.000000000000
 22 H     1 shells
 l=0 nsto= 1
    1       1.200000000000        1.000000000000
 23 H     1 shells
 l=0 nsto= 1
    1       1.200000000000        1.000000000000
 24 H     1 shells
 l=0 nsto= 1
    1       1.200000000000        1.000000000000
 25 C     2 shells
 l=0 nsto= 1
    2       1.625000000000        1.000000000000
 l=1 nsto= 1
    2       1.625000000000        1.000000000000
 26 C     2 shells
 l=0 nsto= 1
    2       1.625000000000        1.000000000000
 l=1 nsto= 1
    2       1.625000000000        1.000000000000
 27 C     2 shells
 l=0 nsto= 1
    2       1.625000000000        1.000000000000
 l=1 nsto= 1
    2       1.625000000000        1.000000000000
 28 C     2 shells
 l=0 nsto= 1
    2       1.625000000000        1.000000000000
 l=1 nsto= 1
    2       1.625000000000        1.000000000000
 29 S     2 shells
 l=0 nsto= 1
    3       1.925000000000        1.000000000000
 l=1 nsto= 1
    3       1.925000000000        1.000000000000
 30 H     1 shells
 l=0 nsto= 1
    1       1.200000000000        1.000000000000
 31 C     2 shells
 l=0 nsto= 1
    2       1.625000000000        1.000000000000
 l=1 nsto= 1
    2       1.625000000000        1.000000000000
 32 C     2 shells
 l=0 nsto= 1
    2       1.625000000000        1.000000000000
 l=1 nsto= 1
    2       1.625000000000        1.000000000000
 33 C     2 shells
 l=0 nsto= 1
    2       1.625000000000        1.000000000000
 l=1 nsto= 1
    2       1.625000000000        1.000000000000
 34 H     1 shells
 l=0 nsto= 1
    1       1.200000000000        1.000000000000
 35 H     1 shells
 l=0 nsto= 1
    1       1.200000000000        1.000000000000
 36 H     1 shells
 l=0 nsto= 1
    1       1.200000000000        1.000000000000
 37 H     1 shells
 l=0 nsto= 1
    1       1.200000000000        1.000000000000
 38 H     1 shells
 l=0 nsto= 1
    1       1.200000000000        1.000000000000
 39 H     1 shells
 l=0 nsto= 1
    1       1.200000000000        1.000000000000
 40 C     2 shells
 l=0 nsto= 1
    2       1.625000000000        1.000000000000
 l=1 nsto= 1
    2       1.625000000000        1.000000000000
 41 C     2 shells
 l=0 nsto= 1
    2       1.625000000000        1.000000000000
 l=1 nsto= 1
    2       1.625000000000        1.000000000000
 42 C     2 shells
 l=0 nsto= 1
    2       1.625000000000        1.000000000000
 l=1 nsto= 1
    2       1.625000000000        1.000000000000
 43 H     1 shells
 l=0 nsto= 1
    1       1.200000000000        1.000000000000
 44 H     1 shells
 l=0 nsto= 1
    1       1.200000000000        1.000000000000
 45 H     1 shells
 l=0 nsto= 1
    1       1.200000000000        1.000000000000
 46 H     1 shells
 l=0 nsto= 1
    1       1.200000000000        1.000000000000
 47 H     1 shells
 l=0 nsto= 1
    1       1.200000000000        1.000000000000
 48 H     1 shells
 l=0 nsto= 1
    1       1.200000000000        1.000000000000
 49 H     1 shells
 l=0 nsto= 1
    1       1.200000000000        1.000000000000
 50 H     1 shells
 l=0 nsto= 1
    1       1.200000000000        1.000000000000
 51 H     1 shells
 l=0 nsto= 1
    1       1.200000000000        1.000000000000
 52 H     1 shells
 l=0 nsto= 1
    1       1.200000000000        1.000000000000
 53 H     1 shells
 l=0 nsto= 1
    1       1.200000000000        1.000000000000
------------------------------------------------------------------------------
                           ORCA NDO INTEGRAL CALCULATION
------------------------------------------------------------------------------

--------------
NDO PARAMETERS
--------------

Gamma integral treatment              ... Mataga-Nishimoto
Nuclear repulsuion treatment          ... Direct (ZA*ZB/RAB)
Interaction factors:
s-s (sigma) =    1.0000
s-p (sigma) =    1.0000
s-d (sigma) =    1.0000
p-p (sigma) =    1.2670  p-p(pi) =    0.5850
p-d (sigma) =    1.0000  p-d(pi) =    1.0000
d-d (sigma) =    1.0000  d-d(pi) =    1.0000 d-d (delta) =    1.0000

fGamma parameter for Mataga-Nishimoto gamma integrals:    1.2000

--------------------------
Parameters for Element H :
--------------------------
 One-electron parameters (in eV)
  U(s)  =   -13.060000 Beta(s) =    12.000000 Neff(s) =     1.000000
 One-center electron repulsion parameters (in eV)
  G(s,s)=    12.850000
--------------------------
Parameters for Element C :
--------------------------
 One-electron parameters (in eV)
  U(s)  =   -50.870766 Beta(s) =    17.000000 Neff(s) =     2.000000
  U(p)  =   -41.599980 Beta(p) =    17.000000 Neff(p) =     2.000000 
 One-center electron repulsion parameters (in eV)
  G(s,s)=    11.110000
  G(s,p)=    11.110000 G(p,p)  =    11.110000
 Slater-Condon parameters (in eV)
 F2(p,p)=     4.5098 G1(s,p)=    6.8977
--------------------------
Parameters for Element S :
--------------------------
 One-electron parameters (in eV)
  U(s)  =   -69.509597 Beta(s) =    15.000000 Neff(s) =     2.000000
  U(p)  =   -60.725746 Beta(p) =    15.000000 Neff(p) =     4.000000 
 One-center electron repulsion parameters (in eV)
  G(s,s)=    10.090000
  G(s,p)=    10.090000 G(p,p)  =    10.090000
 Slater-Condon parameters (in eV)
 F2(p,p)=     4.5377 G1(s,p)=    3.0756

 Number of atoms                    ....   54
 Number of basis functions          ....  120

 Overlap integrals                  .... done
 One electron matrix                .... done
 Nuclear repulsion                  .... done
 Integral list                      .... done
 Electron-electron repulsion        .... done
-------------------------------------------------------------------------------
                                 ORCA SCF
-------------------------------------------------------------------------------

------------
SCF SETTINGS
------------
Hamiltonian:
 ZDO-Hamiltonian        Method          .... INDO


General Settings:
 Integral files         IntName         .... /Users/mattyjones/GoogleDrive/Boise/Code/MorphCT/tests/output_EZ/donor_polymer/chromophores/input_orca/pair/00007-00019
 Hartree-Fock type      HFTyp           .... RHF
 Total Charge           Charge          ....    0
 Multiplicity           Mult            ....    1
 Number of Electrons    NEL             ....  124
 Basis Dimension        Dim             ....  120
 Nuclear Repulsion      ENuc            ....    639.0905609936 Eh

Convergence Acceleration:
 DIIS                   CNVDIIS         .... on
   Start iteration      DIISMaxIt       ....    12
   Startup error        DIISStart       ....  0.200000
   # of expansion vecs  DIISMaxEq       ....     5
   Bias factor          DIISBfac        ....   1.050
   Max. coefficient     DIISMaxC        ....  10.000
 Newton-Raphson         CNVNR           .... off
 SOSCF                  CNVSOSCF        .... on
   Start iteration      SOSCFMaxIt      ....   150
   Startup grad/error   SOSCFStart      ....  0.003300
 Level Shifting         CNVShift        .... on
   Level shift para.    LevelShift      ....    0.2500
   Turn off err/grad.   ShiftErr        ....    0.0010
 Zerner damping         CNVZerner       .... off
 Static damping         CNVDamp         .... on
   Fraction old density DampFac         ....    0.7000
   Max. Damping (<1)    DampMax         ....    0.9800
   Min. Damping (>=0)   DampMin         ....    0.0000
   Turn off err/grad.   DampErr         ....    0.1000
 Fernandez-Rico         CNVRico         .... off

SCF Procedure:
 Maximum # iterations   MaxIter         ....   125
 SCF integral mode      SCFMode         .... Conventional
 Integral Buffer length BufferLength    .... 1048576
 Integral index format  IndFormat       ....     0
 Integral value format  ValFormat       ....     0
 Integral Storage       Thresh          ....  1.000e-08 Eh

Convergence Tolerance:
 Convergence Check Mode ConvCheckMode   .... Total+1el-Energy
 Energy Change          TolE            ....  1.000e-06 Eh
 1-El. energy change                    ....  1.000e-03 Eh
 Orbital Gradient       TolG            ....  5.000e-05
 Orbital Rotation angle TolX            ....  5.000e-05
 DIIS Error             TolErr          ....  1.000e-06


Diagonalization of the overlap matrix:
Smallest eigenvalue                        ... 1.696e-01
Time for diagonalization                   ...    0.003 sec
Threshold for overlap eigenvalues          ... 1.000e-08
Number of eigenvalues below threshold      ... 0
Time for construction of square roots      ...    0.001 sec
Total time needed                          ...    0.004 sec

-------------------------------
INITIAL GUESS: EXTENDED HUECKEL
-------------------------------
EHT matrix was read from disk
EHT matrix was diagonalized
Initial density was built
                      ------------------
                      INITIAL GUESS DONE
                      ------------------

 InCore treatment chosen:
   Memory dedicated               ...    1024 MB
   Memory needed                  ...      0 MB
   Number of tiny    integrals    ...       0
   Number of small   integrals    ...       0
   Number of regular integrals    ...    7392

--------------
SCF ITERATIONS
--------------
ITER       Energy         Delta-E        Max-DP      RMS-DP      [F,P]     Damp
  0    -20.3810901563   0.000000000000 0.04327561  0.00144794  0.1041262 0.7000
  1    -20.4229027072  -0.041812550872 0.04172011  0.00136441  0.0721984 0.7000
                               ***Turning on DIIS***
  2    -20.4538679204  -0.030965213212 0.10853207  0.00350405  0.0475749 0.0000
  3    -20.5343439654  -0.080476044978 0.01779052  0.00072827  0.0208919 0.0000
  4    -20.5200231588   0.014320806576 0.01346613  0.00050025  0.0074516 0.0000
  5    -20.5372774404  -0.017254281613 0.00943144  0.00033774  0.0044092 0.0000
  6    -20.5397235479  -0.002446107403 0.00697705  0.00023887  0.0025278 0.0000
                      *** Initiating the SOSCF procedure ***
                           *** Shutting down DIIS ***
                      *** Re-Reading the Fockian *** 
                      *** Removing any level shift *** 
ITER      Energy       Delta-E        Grad      Rot      Max-DP    RMS-DP
  7    -20.53552624   0.0041973037  0.003020  0.003020  0.004163  0.000134
  8    -20.53339803   0.0021282137  0.000810  0.002234  0.002073  0.000062
  9    -20.53341258  -0.0000145475  0.000357  0.002186  0.002318  0.000066
 10    -20.53341788  -0.0000053047  0.000031  0.000091  0.000144  0.000004
                 **** Energy Check signals convergence ****
              ***Rediagonalizing the Fockian in SOSCF/NRSCF***

               *****************************************************
               *                     SUCCESS                       *
               *           SCF CONVERGED AFTER  11 CYCLES          *
               *****************************************************


----------------
TOTAL SCF ENERGY
----------------

Total Energy       :          -20.53341793 Eh            -558.74271 eV

Components:
Nuclear Repulsion  :          639.09056099 Eh           17390.53828 eV
Electronic Energy  :         -659.62397893 Eh          -17949.28099 eV

One Electron Energy:        -1228.86805932 Eh          -33439.19991 eV
Two Electron Energy:          569.24408039 Eh           15489.91892 eV


---------------
SCF CONVERGENCE
---------------

  Last Energy change         ...   -5.2236e-08  Tolerance :   1.0000e-06
  Last MAX-Density change    ...    6.3563e-05  Tolerance :   1.0000e-05
  Last RMS-Density change    ...    1.5193e-06  Tolerance :   1.0000e-06
  Last Orbital Gradient      ...    1.3102e-05  Tolerance :   5.0000e-05
  Last Orbital Rotation      ...    2.6140e-05  Tolerance :   5.0000e-05

             **** THE GBW FILE WAS UPDATED (/Users/mattyjones/GoogleDrive/Boise/Code/MorphCT/tests/output_EZ/donor_polymer/chromophores/input_orca/pair/00007-00019.gbw) ****
             **** DENSITY FILE WAS UPDATED (/Users/mattyjones/GoogleDrive/Boise/Code/MorphCT/tests/output_EZ/donor_polymer/chromophores/input_orca/pair/00007-00019.scfp.tmp) ****
             **** ENERGY FILE WAS UPDATED (/Users/mattyjones/GoogleDrive/Boise/Code/MorphCT/tests/output_EZ/donor_polymer/chromophores/input_orca/pair/00007-00019.en.tmp) ****
----------------
ORBITAL ENERGIES
----------------

  NO   OCC          E(Eh)            E(eV) 
   0   2.0000      -1.559499       -42.4361 
   1   2.0000      -1.557460       -42.3806 
   2   2.0000      -1.405676       -38.2504 
   3   2.0000      -1.385323       -37.6966 
   4   2.0000      -1.289314       -35.0840 
   5   2.0000      -1.278912       -34.8010 
   6   2.0000      -1.181944       -32.1623 
   7   2.0000      -1.181034       -32.1376 
   8   2.0000      -1.116508       -30.3817 
   9   2.0000      -1.110357       -30.2144 
  10   2.0000      -1.061583       -28.8871 
  11   2.0000      -1.053770       -28.6745 
  12   2.0000      -0.959203       -26.1012 
  13   2.0000      -0.958171       -26.0732 
  14   2.0000      -0.892412       -24.2838 
  15   2.0000      -0.889488       -24.2042 
  16   2.0000      -0.863131       -23.4870 
  17   2.0000      -0.852774       -23.2052 
  18   2.0000      -0.833822       -22.6895 
  19   2.0000      -0.833270       -22.6744 
  20   2.0000      -0.783602       -21.3229 
  21   2.0000      -0.777614       -21.1600 
  22   2.0000      -0.734075       -19.9752 
  23   2.0000      -0.723124       -19.6772 
  24   2.0000      -0.706479       -19.2243 
  25   2.0000      -0.694589       -18.9007 
  26   2.0000      -0.672607       -18.3026 
  27   2.0000      -0.666222       -18.1288 
  28   2.0000      -0.634166       -17.2565 
  29   2.0000      -0.630293       -17.1511 
  30   2.0000      -0.617485       -16.8026 
  31   2.0000      -0.615066       -16.7368 
  32   2.0000      -0.600607       -16.3434 
  33   2.0000      -0.593379       -16.1467 
  34   2.0000      -0.576559       -15.6890 
  35   2.0000      -0.576450       -15.6860 
  36   2.0000      -0.567901       -15.4534 
  37   2.0000      -0.562024       -15.2934 
  38   2.0000      -0.558886       -15.2081 
  39   2.0000      -0.556944       -15.1552 
  40   2.0000      -0.540105       -14.6970 
  41   2.0000      -0.533791       -14.5252 
  42   2.0000      -0.523075       -14.2336 
  43   2.0000      -0.507047       -13.7975 
  44   2.0000      -0.506350       -13.7785 
  45   2.0000      -0.499935       -13.6039 
  46   2.0000      -0.497009       -13.5243 
  47   2.0000      -0.492704       -13.4072 
  48   2.0000      -0.487651       -13.2696 
  49   2.0000      -0.486938       -13.2503 
  50   2.0000      -0.479218       -13.0402 
  51   2.0000      -0.479031       -13.0351 
  52   2.0000      -0.471787       -12.8380 
  53   2.0000      -0.468269       -12.7422 
  54   2.0000      -0.457252       -12.4425 
  55   2.0000      -0.454921       -12.3790 
  56   2.0000      -0.436382       -11.8746 
  57   2.0000      -0.435573       -11.8525 
  58   2.0000      -0.356773        -9.7083 
  59   2.0000      -0.354051        -9.6342 
  60   2.0000      -0.305575        -8.3151 
  61   2.0000      -0.304807        -8.2942 
  62   0.0000       0.007148         0.1945 
  63   0.0000       0.008469         0.2304 
  64   0.0000       0.062311         1.6956 
  65   0.0000       0.065684         1.7873 
  66   0.0000       0.072952         1.9851 
  67   0.0000       0.076254         2.0750 
  68   0.0000       0.084524         2.3000 
  69   0.0000       0.084544         2.3006 
  70   0.0000       0.103699         2.8218 
  71   0.0000       0.105391         2.8678 
  72   0.0000       0.107727         2.9314 
  73   0.0000       0.108279         2.9464 
  74   0.0000       0.123306         3.3553 
  75   0.0000       0.124994         3.4013 
  76   0.0000       0.141318         3.8455 
  77   0.0000       0.141838         3.8596 
  78   0.0000       0.156174         4.2497 
  79   0.0000       0.160814         4.3760 
  80   0.0000       0.165500         4.5035 
  81   0.0000       0.166222         4.5231 
  82   0.0000       0.166794         4.5387 
  83   0.0000       0.176677         4.8076 
  84   0.0000       0.202891         5.5209 
  85   0.0000       0.203730         5.5438 
  86   0.0000       0.229649         6.2491 
  87   0.0000       0.234076         6.3695 
  88   0.0000       0.234184         6.3725 
  89   0.0000       0.236167         6.4264 
  90   0.0000       0.236301         6.4301 
  91   0.0000       0.237436         6.4610 
  92   0.0000       0.238362         6.4862 
  93   0.0000       0.238444         6.4884 
  94   0.0000       0.239974         6.5300 
  95   0.0000       0.240790         6.5522 
  96   0.0000       0.241581         6.5737 
  97   0.0000       0.243114         6.6155 
  98   0.0000       0.244187         6.6447 
  99   0.0000       0.244561         6.6548 
 100   0.0000       0.245189         6.6719 
 101   0.0000       0.247259         6.7282 
 102   0.0000       0.252887         6.8814 
 103   0.0000       0.256773         6.9872 
 104   0.0000       0.266627         7.2553 
 105   0.0000       0.267385         7.2759 
 106   0.0000       0.274357         7.4656 
 107   0.0000       0.283502         7.7145 
 108   0.0000       0.305992         8.3265 
 109   0.0000       0.306231         8.3330 
 110   0.0000       0.310621         8.4524 
 111   0.0000       0.310646         8.4531 
 112   0.0000       0.337432         9.1820 
 113   0.0000       0.340509         9.2657 
 114   0.0000       0.350583         9.5398 
 115   0.0000       0.355634         9.6773 
 116   0.0000       0.419657        11.4194 
 117   0.0000       0.420967        11.4551 
 118   0.0000       0.425372        11.5750 
 119   0.0000       0.429252        11.6805 
-------
TIMINGS
-------

Total SCF time: 0 days 0 hours 0 min 0 sec 

Total time                  ....       0.112 sec
Sum of individual times     ....       0.090 sec  ( 80.3%)

Fock matrix formation       ....       0.043 sec  ( 38.3%)
Diagonalization             ....       0.024 sec  ( 21.1%)
Density matrix formation    ....       0.005 sec  (  4.4%)
Population analysis         ....       0.000 sec  (  0.0%)
Initial guess               ....       0.003 sec  (  2.6%)
Orbital Transformation      ....       0.000 sec  (  0.0%)
Orbital Orthonormalization  ....       0.000 sec  (  0.0%)
DIIS solution               ....       0.010 sec  (  9.2%)
SOSCF solution              ....       0.005 sec  (  4.7%)

-------------------------   --------------------
FINAL SINGLE POINT ENERGY       -20.533417934796
-------------------------   --------------------


                            ***************************************
                            *     ORCA property calculations      *
                            ***************************************

                                    ---------------------
                                    Active property flags
                                    ---------------------
   (+) Dipole Moment


------------------------------------------------------------------------------
                       ORCA ELECTRIC PROPERTIES CALCULATION
------------------------------------------------------------------------------

Dipole Moment Calculation                       ... on
Quadrupole Moment Calculation                   ... off
Polarizability Calculation                      ... off
GBWName                                         ... /Users/mattyjones/GoogleDrive/Boise/Code/MorphCT/tests/output_EZ/donor_polymer/chromophores/input_orca/pair/00007-00019.gbw
Electron density file                           ... /Users/mattyjones/GoogleDrive/Boise/Code/MorphCT/tests/output_EZ/donor_polymer/chromophores/input_orca/pair/00007-00019.scfp.tmp

-------------
DIPOLE MOMENT
-------------
                                X             Y             Z
Electronic contribution:     49.10116     -10.01013      42.99974
Nuclear contribution   :    -27.36948       5.70131     -23.36869
                        -----------------------------------------
Total Dipole Moment    :     21.73168      -4.30883      19.63104
                        -----------------------------------------
Magnitude (a.u.)       :     29.60084
Magnitude (Debye)      :     75.23935


Timings for individual modules:

Sum of individual times         ...        0.197 sec (=   0.003 min)
STO integral calculation        ...        0.048 sec (=   0.001 min)  24.6 %
SCF iterations                  ...        0.148 sec (=   0.002 min)  75.4 %
                             ****ORCA TERMINATED NORMALLY****
TOTAL RUN TIME: 0 days 0 hours 0 minutes 0 seconds 564 msec

