
                                 *****************
                                 * O   R   C   A *
                                 *****************

           --- An Ab Initio, DFT and Semiempirical electronic structure package ---

                  #######################################################
                  #                        -***-                        #
                  #  Department of molecular theory and spectroscopy    #
                  #              Directorship: Frank Neese              #
                  # Max Planck Institute for Chemical Energy Conversion #
                  #                  D-45470 Muelheim/Ruhr              #
                  #                       Germany                       #
                  #                                                     #
                  #                  All rights reserved                #
                  #                        -***-                        #
                  #######################################################


                         Program Version 3.0.3 - RELEASE   -


 With contributions from (in alphabetic order):
   Ute Becker             : Parallelization
   Dmytro Bykov           : SCF Hessian
   Dmitry Ganyushin       : Spin-Orbit,Spin-Spin,Magnetic field MRCI
   Andreas Hansen         : Spin unrestricted coupled pair/coupled cluster methods
   Dimitrios Liakos       : Extrapolation schemes; parallel MDCI
   Robert Izsak           : Overlap fitted RIJCOSX, COSX-SCS-MP3
   Christian Kollmar      : KDIIS, OOCD, Brueckner-CCSD(T), CCSD density
   Simone Kossmann        : Meta GGA functionals, TD-DFT gradient, OOMP2, MP2 Hessian
   Taras Petrenko         : DFT Hessian,TD-DFT gradient, ASA and ECA modules, normal mode analysis, Resonance Raman, ABS, FL, XAS/XES, NRVS
   Christoph Reimann      : Effective Core Potentials
   Michael Roemelt        : Restricted open shell CIS
   Christoph Riplinger    : Improved optimizer, TS searches, QM/MM, DLPNO-CCSD
   Barbara Sandhoefer     : DKH picture change effects
   Igor Schapiro          : Molecular dynamics
   Kantharuban Sivalingam : CASSCF convergence, NEVPT2
   Boris Wezisla          : Elementary symmetry handling
   Frank Wennmohs         : Technical directorship


 We gratefully acknowledge several colleagues who have allowed us to
 interface, adapt or use parts of their codes:
   Stefan Grimme, W. Hujo, H. Kruse, T. Risthaus : VdW corrections, initial TS optimization,
                                                   DFT functionals, gCP
   Ed Valeev                                     : LibInt (2-el integral package), F12 methods
   Garnet Chan, S. Sharma, R. Olivares           : DMRG
   Ulf Ekstrom                                   : XCFun DFT Library
   Mihaly Kallay                                 : mrcc  (arbitrary order and MRCC methods)
   Andreas Klamt, Michael Diedenhofen            : otool_cosmo (COSMO solvation model)
   Frank Weinhold                                : gennbo (NPA and NBO analysis)
   Christopher J. Cramer and Donald G. Truhlar   : smd solvation model


 Your calculation uses the libint2 library for the computation of 2-el integrals
 For citations please refer to: http://libint.valeyev.net

 This ORCA versions uses:
   CBLAS   interface :  Fast vector & matrix operations
   LAPACKE interface :  Fast linear algebra routines
   SCALAPACK package :  Parallel linear algebra routines


leaving
================================================================================
                                        WARNINGS
                       Please study these warnings very carefully!
================================================================================
Now building the actual basis set

WARNING: Direct SCF is incompatible with Method<>HF and Method<>DFT
  ===> : conventional SCF is chosen

WARNING: The NDO methods need Guess=HUECKEL or Guess=HCORE or Guess=MOREAD
  ===> : Guess is set to Hueckel

WARNING: The NDO methods need %rel::SOCType==1
  ===> : %rel::SOCType is set to 1

WARNING: The NDO methods cannot have frozencore=1
  ===> : %method FrozenCore=0 end


INFO   : the flag for use of LIBINT has been found!

================================================================================
                                       INPUT FILE
================================================================================
NAME = /Users/mattyjones/GoogleDrive/Boise/Code/MorphCT/tests/output_EZ/donor_polymer/chromophores/input_orca/pair/00008-00024.inp
|  1> # ================================================================
|  2> # Orca input file made by Matty Jones
|  3> # ================================================================
|  4> ! ZINDO/S 
|  5> ! NOPOP
|  6> ! NOMOPRINT
|  7> * xyz 0   1
|  8>  C  -17.48949  -4.18049  -1.52620
|  9>  C  -18.21929  -5.31226  -1.15959
| 10>  C  -17.58341  -6.12055  -0.16632
| 11>  C  -16.34525  -5.62453  0.25350
| 12>  S  -16.10579  -4.23159  -0.61414
| 13>  H  -19.14562  -5.67826  -1.72109
| 14>  C  -18.23647  -7.48240  0.42139
| 15>  C  -19.22485  -8.58174  -0.45641
| 16>  C  -20.89050  -8.30625  -0.16727
| 17>  H  -21.06370  -8.64927  0.92742
| 18>  H  -21.05537  -7.16281  -0.22104
| 19>  H  -18.96219  -9.66027  -0.17244
| 20>  H  -19.03883  -8.40532  -1.57752
| 21>  H  -18.86247  -7.20407  1.36087
| 22>  H  -17.35742  -8.17029  0.77875
| 23>  C  -22.00794  -9.05743  -1.09703
| 24>  C  -22.70847  -10.59756  -0.87368
| 25>  C  -22.39783  -11.54850  0.47596
| 26>  H  -22.80229  -11.01816  1.42105
| 27>  H  -21.25986  -11.72553  0.57709
| 28>  H  -22.93757  -12.56665  0.34735
| 29>  H  -22.37555  -11.22332  -1.78932
| 30>  H  -23.85345  -10.45142  -0.92413
| 31>  H  -22.93228  -8.34566  -1.10414
| 32>  H  -21.58031  -9.08121  -2.17578
| 33>  C  17.97989  4.65432  2.14220
| 34>  C  18.07940  5.78917  1.33591
| 35>  C  17.58419  6.98384  1.94565
| 36>  C  17.09115  6.79136  3.23994
| 37>  S  17.29107  5.17590  3.55732
| 38>  H  18.26993  5.70970  0.21205
| 39>  C  17.69455  8.33435  1.06208
| 40>  C  19.25498  8.37185  0.32205
| 41>  C  19.79656  9.56060  -0.75503
| 42>  H  19.99125  10.51878  -0.14097
| 43>  H  18.94552  9.76197  -1.50995
| 44>  H  20.00124  8.36675  1.20390
| 45>  H  19.37123  7.39370  -0.27469
| 46>  H  16.90104  8.33748  0.21976
| 47>  H  17.57090  9.28570  1.71025
| 48>  C  21.16145  9.15503  -1.56583
| 49>  C  22.63872  9.90878  -1.22509
| 50>  C  23.66323  9.19581  -0.10008
| 51>  H  23.10409  9.06688  0.90363
| 52>  H  24.58513  9.88077  0.05409
| 53>  H  24.01221  8.16469  -0.49291
| 54>  H  23.22086  9.96651  -2.22258
| 55>  H  22.40619  10.97911  -0.86541
| 56>  H  20.96846  9.31331  -2.69824
| 57>  H  21.35340  8.02098  -1.39709
| 58>  H  -17.76230  -3.44364  -2.23769
| 59>  H  -15.69571  -6.04980  0.97520
| 60>  H  18.28114  3.66712  1.90077
| 61>  H  16.67645  7.52449  3.88348
| 62> *
| 63> 
| 64>                          ****END OF INPUT****
================================================================================

                       ****************************
                       * Single Point Calculation *
                       ****************************

---------------------------------
CARTESIAN COORDINATES (ANGSTROEM)
---------------------------------
  C    -17.489490   -4.180490   -1.526200
  C    -18.219290   -5.312260   -1.159590
  C    -17.583410   -6.120550   -0.166320
  C    -16.345250   -5.624530    0.253500
  S    -16.105790   -4.231590   -0.614140
  H    -19.145620   -5.678260   -1.721090
  C    -18.236470   -7.482400    0.421390
  C    -19.224850   -8.581740   -0.456410
  C    -20.890500   -8.306250   -0.167270
  H    -21.063700   -8.649270    0.927420
  H    -21.055370   -7.162810   -0.221040
  H    -18.962190   -9.660270   -0.172440
  H    -19.038830   -8.405320   -1.577520
  H    -18.862470   -7.204070    1.360870
  H    -17.357420   -8.170290    0.778750
  C    -22.007940   -9.057430   -1.097030
  C    -22.708470  -10.597560   -0.873680
  C    -22.397830  -11.548500    0.475960
  H    -22.802290  -11.018160    1.421050
  H    -21.259860  -11.725530    0.577090
  H    -22.937570  -12.566650    0.347350
  H    -22.375550  -11.223320   -1.789320
  H    -23.853450  -10.451420   -0.924130
  H    -22.932280   -8.345660   -1.104140
  H    -21.580310   -9.081210   -2.175780
  C     17.979890    4.654320    2.142200
  C     18.079400    5.789170    1.335910
  C     17.584190    6.983840    1.945650
  C     17.091150    6.791360    3.239940
  S     17.291070    5.175900    3.557320
  H     18.269930    5.709700    0.212050
  C     17.694550    8.334350    1.062080
  C     19.254980    8.371850    0.322050
  C     19.796560    9.560600   -0.755030
  H     19.991250   10.518780   -0.140970
  H     18.945520    9.761970   -1.509950
  H     20.001240    8.366750    1.203900
  H     19.371230    7.393700   -0.274690
  H     16.901040    8.337480    0.219760
  H     17.570900    9.285700    1.710250
  C     21.161450    9.155030   -1.565830
  C     22.638720    9.908780   -1.225090
  C     23.663230    9.195810   -0.100080
  H     23.104090    9.066880    0.903630
  H     24.585130    9.880770    0.054090
  H     24.012210    8.164690   -0.492910
  H     23.220860    9.966510   -2.222580
  H     22.406190   10.979110   -0.865410
  H     20.968460    9.313310   -2.698240
  H     21.353400    8.020980   -1.397090
  H    -17.762300   -3.443640   -2.237690
  H    -15.695710   -6.049800    0.975200
  H     18.281140    3.667120    1.900770
  H     16.676450    7.524490    3.883480

----------------------------
CARTESIAN COORDINATES (A.U.)
----------------------------
  NO LB      ZA    FRAG    MASS        X           Y           Z
   0 C     4.0000    0    12.011        -33.050346321954393         -7.899981205596453         -2.884100025590614
   1 C     4.0000    0    12.011        -34.429468454490120        -10.038716552184509         -2.191307527633744
   2 C     4.0000    0    12.011        -33.227829400452279        -11.566163288971717         -0.314299250593783
   3 C     4.0000    0    12.011        -30.888046090476340        -10.628821332024097          0.479045574949037
   4 S     6.0000    0    32.060        -30.435532270447553         -7.996546211039829         -1.160556407886397
   5 H     1.0000    0     1.008        -36.179978464125398        -10.730356317199686         -3.252388751830527
   6 C     4.0000    0    12.011        -34.461933949470890        -14.139686824452374          0.796311695573076
   7 C     4.0000    0    12.011        -36.329701465715978        -16.217138352517363         -0.862489904782998
   8 C     4.0000    0    12.011        -39.477323800681908        -15.696537699883397         -0.316094490421008
   9 H     1.0000    0     1.008        -39.804624367077068        -16.344751558341063          1.752569811121247
  10 H     1.0000    0     1.008        -39.788882948381506        -13.535749249312481         -0.417705064641953
  11 H     1.0000    0     1.008        -35.833345999380221        -18.255264679735451         -0.325864374533381
  12 H     1.0000    0     1.008        -35.978174610283943        -15.883752867970975         -2.981080770783453
  13 H     1.0000    0     1.008        -35.644902509305588        -13.613719349598071          2.571671603869414
  14 H     1.0000    0     1.008        -32.800770191447413        -15.439610534715463          1.471624226791175
  15 C     4.0000    0    12.011        -41.588979371770876        -17.116062177162362         -2.073086260695630
  16 C     4.0000    0    12.011        -42.912789220366726        -20.026486087798499         -1.651015928684319
  17 C     4.0000    0    12.011        -42.325764694125425        -21.823502257589578          0.899434050701159
  18 H     1.0000    0     1.008        -43.090083326251218        -20.821304899725778          2.685395322608795
  19 H     1.0000    0     1.008        -40.175313045507060        -22.158040475077652          1.090542054624615
  20 H     1.0000    0     1.008        -43.345725477648088        -23.747526920841494          0.656396372617547
  21 H     1.0000    0     1.008        -42.283661595861666        -21.209001113361062         -3.381324765947974
  22 H     1.0000    0     1.008        -45.076487849183877        -19.750321510587248         -1.746352612140646
  23 H     1.0000    0     1.008        -43.335728826399638        -15.771011806821233         -2.086522213507811
  24 H     1.0000    0     1.008        -40.780875785122127        -17.160999864627012         -4.111628327663181
  25 C     4.0000    0    12.011         33.977068018029378          8.795390139632360          4.048171324086105
  26 C     4.0000    0    12.011         34.165114665615874         10.939945842712893          2.524504039566739
  27 C     4.0000    0    12.011         33.229303386836733         13.197544963124594          3.676745652463883
  28 C     4.0000    0    12.011         32.297592813768198         12.833810476867432          6.122599290336820
  29 S     6.0000    0    32.060         32.675386862461743          9.781033496563007          6.722360570720746
  30 H     1.0000    0     1.008         34.525164185911891         10.789769306850170          0.400716426698001
  31 C     4.0000    0    12.011         33.437853562976279         15.749639004246585          2.007040332315083
  32 C     4.0000    0    12.011         36.386638914131019         15.820503734268630          0.608586301429339
  33 C     4.0000    0    12.011         37.410076793740096         18.066915675967522         -1.426799922894563
  34 H     1.0000    0     1.008         37.777987574753226         19.877613462968181         -0.266394693098879
  35 H     1.0000    0     1.008         35.801844264727748         18.447449827555239         -2.853391975914394
  36 H     1.0000    0     1.008         37.796865938831097         15.810866130985632          2.275041292627795
  37 H     1.0000    0     1.008         36.606319577199372         13.972068116373558         -0.519088871726829
  38 H     1.0000    0     1.008         31.938336978448429         15.755553847045755          0.415286215190534
  39 H     1.0000    0     1.008         33.204188926516927         17.547429961752567          3.231904120538821
  40 C     4.0000    0    12.011         39.989345096667869         17.300499447833076         -2.958989872277914
  41 C     4.0000    0    12.011         42.780980822525720         18.724880521276219         -2.315084589405586
  42 C     4.0000    0    12.011         44.717024143989377         17.377562479574387         -0.189123791482839
  43 H     1.0000    0     1.008         43.660402673468653         17.133920089127916          1.707613226395261
  44 H     1.0000    0     1.008         46.459162666851384         18.671949292265086          0.102215286583800
  45 H     1.0000    0     1.008         45.376500770205219         15.429028068365504         -0.931464908671124
  46 H     1.0000    0     1.008         43.881065994126629         18.833974410987494         -4.200067510730695
  47 H     1.0000    0     1.008         42.341562804605005         20.747511094196152         -1.635387893556790
  48 H     1.0000    0     1.008         39.624646850082407         17.599605300310131         -5.098934643591678
  49 H     1.0000    0     1.008         40.352078028074054         15.157455525659680         -2.640117484440041
  50 H     1.0000    0     1.008        -33.565882508549450         -6.507536503816579         -4.228621272614246
  51 H     1.0000    0     1.008        -29.660593377449128        -11.432465164996788          1.842860925800005
  52 H     1.0000    0     1.008         34.546348015873150          6.929852500225301          3.591934743573498
  53 H     1.0000    0     1.008         31.513923386031056         14.219225397429119          7.338713646560502

--------------------------------
INTERNAL COORDINATES (ANGSTROEM)
--------------------------------
 C      0   0   0   0.000000     0.000     0.000
 C      1   0   0   1.395677     0.000     0.000
 C      2   1   0   1.429777   114.102     0.000
 C      3   2   1   1.398329   113.693     0.000
 S      1   2   3   1.658038   105.480     0.000
 H      2   1   3   1.143383   123.657   190.607
 C      3   2   1   1.620656   123.213   179.870
 C      7   3   2   1.719295   125.719    33.156
 C      8   7   3   1.712859   111.716   262.235
 H      9   8   7   1.160175   104.886   289.650
 H      9   8   7   1.156516   106.846    44.544
 H      8   7   3   1.145799   110.094   140.448
 H      8   7   3   1.150050   107.857    19.905
 H      7   3   2   1.162741   107.987   268.747
 H      7   3   2   1.172019   107.550   153.203
 C      9   8   7   1.636275   119.626   169.223
 C     16   9   8   1.706642   128.334    87.436
 C     17  16   9   1.679974   122.687     4.795
 H     18  17  16   1.156738   109.403    64.424
 H     18  17  16   1.156089   109.814   303.538
 H     18  17  16   1.159521   108.775   183.749
 H     17  16   9   1.157933   105.437   243.619
 H     17  16   9   1.155371   106.674   128.284
 H     16   9   8   1.166650   105.335   208.486
 H     16   9   8   1.160661   106.613   322.382
 C      5   1   2  35.332568   147.167   152.535
 C     26   5   1   1.395668   103.192    25.842
 C     27  26   5   1.429773   114.101    78.057
 C     28  27  26   1.398329   113.693     0.000
 S     26   5   1   1.658036    75.221   128.650
 H     27  26   5   1.142663   121.570   273.652
 C     28  27  26   1.617638   116.169   179.169
 C     32  28  27   1.727424   108.285   316.271
 C     33  32  28   1.693085   125.221   176.874
 H     34  33  32   1.154592   107.354    72.880
 H     34  33  32   1.155302   107.604   315.578
 H     33  32  28   1.155244   104.857   299.865
 H     33  32  28   1.151690   107.141    55.675
 H     32  28  27   1.157226   110.674    74.361
 H     32  28  27   1.157791   111.897   196.648
 C     34  33  32   1.638538   114.045   193.936
 C     41  34  33   1.693095   121.133   251.117
 C     42  41  34   1.680355   118.543    92.634
 H     43  42  41   1.156155   109.492   303.440
 H     43  42  41   1.158809   108.864   183.661
 H     43  42  41   1.157286   109.550    64.087
 H     42  41  34   1.156376   106.730   213.319
 H     42  41  34   1.152843   107.465   330.037
 H     41  34  33   1.159590   108.108   128.237
 H     41  34  33   1.162492   107.889    12.141
 H      1   2   3   1.059996   127.260   180.000
 H      4   3   2   1.060004   127.206   180.000
 H     26   5   1   1.060002    91.271   256.998
 H     29  28  27   1.060000   127.206   180.000

---------------------------
INTERNAL COORDINATES (A.U.)
---------------------------
 C      0   0   0   0.000000     0.000     0.000
 C      1   0   0   2.637447     0.000     0.000
 C      2   1   0   2.701886   114.102     0.000
 C      3   2   1   2.642459   113.693     0.000
 S      1   2   3   3.133238   105.480     0.000
 H      2   1   3   2.160681   123.657   190.607
 C      3   2   1   3.062596   123.213   179.870
 C      7   3   2   3.248997   125.719    33.156
 C      8   7   3   3.236835   111.716   262.235
 H      9   8   7   2.192414   104.886   289.650
 H      9   8   7   2.185498   106.846    44.544
 H      8   7   3   2.165247   110.094   140.448
 H      8   7   3   2.173280   107.857    19.905
 H      7   3   2   2.197262   107.987   268.747
 H      7   3   2   2.214794   107.550   153.203
 C      9   8   7   3.092112   119.626   169.223
 C     16   9   8   3.225087   128.334    87.436
 C     17  16   9   3.174691   122.687     4.795
 H     18  17  16   2.185919   109.403    64.424
 H     18  17  16   2.184692   109.814   303.538
 H     18  17  16   2.191177   108.775   183.749
 H     17  16   9   2.188176   105.437   243.619
 H     17  16   9   2.183334   106.674   128.284
 H     16   9   8   2.204648   105.335   208.486
 H     16   9   8   2.193332   106.613   322.382
 C      5   1   2  66.768878   147.167   152.535
 C     26   5   1   2.637431   103.192    25.842
 C     27  26   5   2.701880   114.101    78.057
 C     28  27  26   2.642459   113.693     0.000
 S     26   5   1   3.133234    75.221   128.650
 H     27  26   5   2.159320   121.570   273.652
 C     28  27  26   3.056893   116.169   179.169
 C     32  28  27   3.264358   108.285   316.271
 C     33  32  28   3.199467   125.221   176.874
 H     34  33  32   2.181863   107.354    72.880
 H     34  33  32   2.183205   107.604   315.578
 H     33  32  28   2.183095   104.857   299.865
 H     33  32  28   2.176379   107.141    55.675
 H     32  28  27   2.186839   110.674    74.361
 H     32  28  27   2.187908   111.897   196.648
 C     34  33  32   3.096389   114.045   193.936
 C     41  34  33   3.199485   121.133   251.117
 C     42  41  34   3.175412   118.543    92.634
 H     43  42  41   2.184816   109.492   303.440
 H     43  42  41   2.189832   108.864   183.661
 H     43  42  41   2.186954   109.550    64.087
 H     42  41  34   2.185234   106.730   213.319
 H     42  41  34   2.178557   107.465   330.037
 H     41  34  33   2.191308   108.108   128.237
 H     41  34  33   2.196791   107.889    12.141
 H      1   2   3   2.003102   127.260   180.000
 H      4   3   2   2.003117   127.206   180.000
 H     26   5   1   2.003113    91.271   256.998
 H     29  28  27   2.003109   127.206   180.000

----------------------------
SLATER BASIS SET DIM= 120
----------------------------
  0 C     2 shells
 l=0 nsto= 1
    2       1.625000000000        1.000000000000
 l=1 nsto= 1
    2       1.625000000000        1.000000000000
  1 C     2 shells
 l=0 nsto= 1
    2       1.625000000000        1.000000000000
 l=1 nsto= 1
    2       1.625000000000        1.000000000000
  2 C     2 shells
 l=0 nsto= 1
    2       1.625000000000        1.000000000000
 l=1 nsto= 1
    2       1.625000000000        1.000000000000
  3 C     2 shells
 l=0 nsto= 1
    2       1.625000000000        1.000000000000
 l=1 nsto= 1
    2       1.625000000000        1.000000000000
  4 S     2 shells
 l=0 nsto= 1
    3       1.925000000000        1.000000000000
 l=1 nsto= 1
    3       1.925000000000        1.000000000000
  5 H     1 shells
 l=0 nsto= 1
    1       1.200000000000        1.000000000000
  6 C     2 shells
 l=0 nsto= 1
    2       1.625000000000        1.000000000000
 l=1 nsto= 1
    2       1.625000000000        1.000000000000
  7 C     2 shells
 l=0 nsto= 1
    2       1.625000000000        1.000000000000
 l=1 nsto= 1
    2       1.625000000000        1.000000000000
  8 C     2 shells
 l=0 nsto= 1
    2       1.625000000000        1.000000000000
 l=1 nsto= 1
    2       1.625000000000        1.000000000000
  9 H     1 shells
 l=0 nsto= 1
    1       1.200000000000        1.000000000000
 10 H     1 shells
 l=0 nsto= 1
    1       1.200000000000        1.000000000000
 11 H     1 shells
 l=0 nsto= 1
    1       1.200000000000        1.000000000000
 12 H     1 shells
 l=0 nsto= 1
    1       1.200000000000        1.000000000000
 13 H     1 shells
 l=0 nsto= 1
    1       1.200000000000        1.000000000000
 14 H     1 shells
 l=0 nsto= 1
    1       1.200000000000        1.000000000000
 15 C     2 shells
 l=0 nsto= 1
    2       1.625000000000        1.000000000000
 l=1 nsto= 1
    2       1.625000000000        1.000000000000
 16 C     2 shells
 l=0 nsto= 1
    2       1.625000000000        1.000000000000
 l=1 nsto= 1
    2       1.625000000000        1.000000000000
 17 C     2 shells
 l=0 nsto= 1
    2       1.625000000000        1.000000000000
 l=1 nsto= 1
    2       1.625000000000        1.000000000000
 18 H     1 shells
 l=0 nsto= 1
    1       1.200000000000        1.000000000000
 19 H     1 shells
 l=0 nsto= 1
    1       1.200000000000        1.000000000000
 20 H     1 shells
 l=0 nsto= 1
    1       1.200000000000        1.000000000000
 21 H     1 shells
 l=0 nsto= 1
    1       1.200000000000        1.000000000000
 22 H     1 shells
 l=0 nsto= 1
    1       1.200000000000        1.000000000000
 23 H     1 shells
 l=0 nsto= 1
    1       1.200000000000        1.000000000000
 24 H     1 shells
 l=0 nsto= 1
    1       1.200000000000        1.000000000000
 25 C     2 shells
 l=0 nsto= 1
    2       1.625000000000        1.000000000000
 l=1 nsto= 1
    2       1.625000000000        1.000000000000
 26 C     2 shells
 l=0 nsto= 1
    2       1.625000000000        1.000000000000
 l=1 nsto= 1
    2       1.625000000000        1.000000000000
 27 C     2 shells
 l=0 nsto= 1
    2       1.625000000000        1.000000000000
 l=1 nsto= 1
    2       1.625000000000        1.000000000000
 28 C     2 shells
 l=0 nsto= 1
    2       1.625000000000        1.000000000000
 l=1 nsto= 1
    2       1.625000000000        1.000000000000
 29 S     2 shells
 l=0 nsto= 1
    3       1.925000000000        1.000000000000
 l=1 nsto= 1
    3       1.925000000000        1.000000000000
 30 H     1 shells
 l=0 nsto= 1
    1       1.200000000000        1.000000000000
 31 C     2 shells
 l=0 nsto= 1
    2       1.625000000000        1.000000000000
 l=1 nsto= 1
    2       1.625000000000        1.000000000000
 32 C     2 shells
 l=0 nsto= 1
    2       1.625000000000        1.000000000000
 l=1 nsto= 1
    2       1.625000000000        1.000000000000
 33 C     2 shells
 l=0 nsto= 1
    2       1.625000000000        1.000000000000
 l=1 nsto= 1
    2       1.625000000000        1.000000000000
 34 H     1 shells
 l=0 nsto= 1
    1       1.200000000000        1.000000000000
 35 H     1 shells
 l=0 nsto= 1
    1       1.200000000000        1.000000000000
 36 H     1 shells
 l=0 nsto= 1
    1       1.200000000000        1.000000000000
 37 H     1 shells
 l=0 nsto= 1
    1       1.200000000000        1.000000000000
 38 H     1 shells
 l=0 nsto= 1
    1       1.200000000000        1.000000000000
 39 H     1 shells
 l=0 nsto= 1
    1       1.200000000000        1.000000000000
 40 C     2 shells
 l=0 nsto= 1
    2       1.625000000000        1.000000000000
 l=1 nsto= 1
    2       1.625000000000        1.000000000000
 41 C     2 shells
 l=0 nsto= 1
    2       1.625000000000        1.000000000000
 l=1 nsto= 1
    2       1.625000000000        1.000000000000
 42 C     2 shells
 l=0 nsto= 1
    2       1.625000000000        1.000000000000
 l=1 nsto= 1
    2       1.625000000000        1.000000000000
 43 H     1 shells
 l=0 nsto= 1
    1       1.200000000000        1.000000000000
 44 H     1 shells
 l=0 nsto= 1
    1       1.200000000000        1.000000000000
 45 H     1 shells
 l=0 nsto= 1
    1       1.200000000000        1.000000000000
 46 H     1 shells
 l=0 nsto= 1
    1       1.200000000000        1.000000000000
 47 H     1 shells
 l=0 nsto= 1
    1       1.200000000000        1.000000000000
 48 H     1 shells
 l=0 nsto= 1
    1       1.200000000000        1.000000000000
 49 H     1 shells
 l=0 nsto= 1
    1       1.200000000000        1.000000000000
 50 H     1 shells
 l=0 nsto= 1
    1       1.200000000000        1.000000000000
 51 H     1 shells
 l=0 nsto= 1
    1       1.200000000000        1.000000000000
 52 H     1 shells
 l=0 nsto= 1
    1       1.200000000000        1.000000000000
 53 H     1 shells
 l=0 nsto= 1
    1       1.200000000000        1.000000000000
------------------------------------------------------------------------------
                           ORCA NDO INTEGRAL CALCULATION
------------------------------------------------------------------------------

--------------
NDO PARAMETERS
--------------

Gamma integral treatment              ... Mataga-Nishimoto
Nuclear repulsuion treatment          ... Direct (ZA*ZB/RAB)
Interaction factors:
s-s (sigma) =    1.0000
s-p (sigma) =    1.0000
s-d (sigma) =    1.0000
p-p (sigma) =    1.2670  p-p(pi) =    0.5850
p-d (sigma) =    1.0000  p-d(pi) =    1.0000
d-d (sigma) =    1.0000  d-d(pi) =    1.0000 d-d (delta) =    1.0000

fGamma parameter for Mataga-Nishimoto gamma integrals:    1.2000

--------------------------
Parameters for Element H :
--------------------------
 One-electron parameters (in eV)
  U(s)  =   -13.060000 Beta(s) =    12.000000 Neff(s) =     1.000000
 One-center electron repulsion parameters (in eV)
  G(s,s)=    12.850000
--------------------------
Parameters for Element C :
--------------------------
 One-electron parameters (in eV)
  U(s)  =   -50.870766 Beta(s) =    17.000000 Neff(s) =     2.000000
  U(p)  =   -41.599980 Beta(p) =    17.000000 Neff(p) =     2.000000 
 One-center electron repulsion parameters (in eV)
  G(s,s)=    11.110000
  G(s,p)=    11.110000 G(p,p)  =    11.110000
 Slater-Condon parameters (in eV)
 F2(p,p)=     4.5098 G1(s,p)=    6.8977
--------------------------
Parameters for Element S :
--------------------------
 One-electron parameters (in eV)
  U(s)  =   -69.509597 Beta(s) =    15.000000 Neff(s) =     2.000000
  U(p)  =   -60.725746 Beta(p) =    15.000000 Neff(p) =     4.000000 
 One-center electron repulsion parameters (in eV)
  G(s,s)=    10.090000
  G(s,p)=    10.090000 G(p,p)  =    10.090000
 Slater-Condon parameters (in eV)
 F2(p,p)=     4.5377 G1(s,p)=    3.0756

 Number of atoms                    ....   54
 Number of basis functions          ....  120

 Overlap integrals                  .... done
 One electron matrix                .... done
 Nuclear repulsion                  .... done
 Integral list                      .... done
 Electron-electron repulsion        .... done
-------------------------------------------------------------------------------
                                 ORCA SCF
-------------------------------------------------------------------------------

------------
SCF SETTINGS
------------
Hamiltonian:
 ZDO-Hamiltonian        Method          .... INDO


General Settings:
 Integral files         IntName         .... /Users/mattyjones/GoogleDrive/Boise/Code/MorphCT/tests/output_EZ/donor_polymer/chromophores/input_orca/pair/00008-00024
 Hartree-Fock type      HFTyp           .... RHF
 Total Charge           Charge          ....    0
 Multiplicity           Mult            ....    1
 Number of Electrons    NEL             ....  124
 Basis Dimension        Dim             ....  120
 Nuclear Repulsion      ENuc            ....    634.1246614167 Eh

Convergence Acceleration:
 DIIS                   CNVDIIS         .... on
   Start iteration      DIISMaxIt       ....    12
   Startup error        DIISStart       ....  0.200000
   # of expansion vecs  DIISMaxEq       ....     5
   Bias factor          DIISBfac        ....   1.050
   Max. coefficient     DIISMaxC        ....  10.000
 Newton-Raphson         CNVNR           .... off
 SOSCF                  CNVSOSCF        .... on
   Start iteration      SOSCFMaxIt      ....   150
   Startup grad/error   SOSCFStart      ....  0.003300
 Level Shifting         CNVShift        .... on
   Level shift para.    LevelShift      ....    0.2500
   Turn off err/grad.   ShiftErr        ....    0.0010
 Zerner damping         CNVZerner       .... off
 Static damping         CNVDamp         .... on
   Fraction old density DampFac         ....    0.7000
   Max. Damping (<1)    DampMax         ....    0.9800
   Min. Damping (>=0)   DampMin         ....    0.0000
   Turn off err/grad.   DampErr         ....    0.1000
 Fernandez-Rico         CNVRico         .... off

SCF Procedure:
 Maximum # iterations   MaxIter         ....   125
 SCF integral mode      SCFMode         .... Conventional
 Integral Buffer length BufferLength    .... 1048576
 Integral index format  IndFormat       ....     0
 Integral value format  ValFormat       ....     0
 Integral Storage       Thresh          ....  1.000e-08 Eh

Convergence Tolerance:
 Convergence Check Mode ConvCheckMode   .... Total+1el-Energy
 Energy Change          TolE            ....  1.000e-06 Eh
 1-El. energy change                    ....  1.000e-03 Eh
 Orbital Gradient       TolG            ....  5.000e-05
 Orbital Rotation angle TolX            ....  5.000e-05
 DIIS Error             TolErr          ....  1.000e-06


Diagonalization of the overlap matrix:
Smallest eigenvalue                        ... 1.696e-01
Time for diagonalization                   ...    0.003 sec
Threshold for overlap eigenvalues          ... 1.000e-08
Number of eigenvalues below threshold      ... 0
Time for construction of square roots      ...    0.001 sec
Total time needed                          ...    0.005 sec

-------------------------------
INITIAL GUESS: EXTENDED HUECKEL
-------------------------------
EHT matrix was read from disk
EHT matrix was diagonalized
Initial density was built
                      ------------------
                      INITIAL GUESS DONE
                      ------------------

 InCore treatment chosen:
   Memory dedicated               ...    1024 MB
   Memory needed                  ...      0 MB
   Number of tiny    integrals    ...       0
   Number of small   integrals    ...       0
   Number of regular integrals    ...    7392

--------------
SCF ITERATIONS
--------------
ITER       Energy         Delta-E        Max-DP      RMS-DP      [F,P]     Damp
  0    -22.3039027842   0.000000000000 0.04358135  0.00144749  0.1078660 0.7000
  1    -22.3457573661  -0.041854581923 0.04237864  0.00136364  0.0735002 0.7000
                               ***Turning on DIIS***
  2    -22.3767314061  -0.030974039998 0.11124006  0.00350107  0.0442401 0.0000
  3    -22.4578166558  -0.081085249737 0.02111570  0.00072836  0.0210329 0.0000
  4    -22.4424376864   0.015378969420 0.01409557  0.00050023  0.0083633 0.0000
  5    -22.4596825046  -0.017244818198 0.00989049  0.00033833  0.0049135 0.0000
  6    -22.4623255023  -0.002642997749 0.00771647  0.00024042  0.0028019 0.0000
                      *** Initiating the SOSCF procedure ***
                           *** Shutting down DIIS ***
                      *** Re-Reading the Fockian *** 
                      *** Removing any level shift *** 
ITER      Energy       Delta-E        Grad      Rot      Max-DP    RMS-DP
  7    -22.45820203   0.0041234752  0.003044  0.003044  0.004627  0.000136
  8    -22.45624710   0.0019549248  0.000818  0.002264  0.002329  0.000063
  9    -22.45626206  -0.0000149597  0.000360  0.002218  0.002630  0.000067
 10    -22.45626758  -0.0000055154  0.000031  0.000080  0.000138  0.000004
                 **** Energy Check signals convergence ****
              ***Rediagonalizing the Fockian in SOSCF/NRSCF***

               *****************************************************
               *                     SUCCESS                       *
               *           SCF CONVERGED AFTER  11 CYCLES          *
               *****************************************************


----------------
TOTAL SCF ENERGY
----------------

Total Energy       :          -22.45626763 Eh            -611.06611 eV

Components:
Nuclear Repulsion  :          634.12466142 Eh           17255.40929 eV
Electronic Energy  :         -656.58092904 Eh          -17866.47539 eV

One Electron Energy:        -1222.82222528 Eh          -33274.68440 eV
Two Electron Energy:          566.24129624 Eh           15408.20901 eV


---------------
SCF CONVERGENCE
---------------

  Last Energy change         ...   -5.0505e-08  Tolerance :   1.0000e-06
  Last MAX-Density change    ...    6.6049e-05  Tolerance :   1.0000e-05
  Last RMS-Density change    ...    1.4228e-06  Tolerance :   1.0000e-06
  Last Orbital Gradient      ...    1.1072e-05  Tolerance :   5.0000e-05
  Last Orbital Rotation      ...    2.5218e-05  Tolerance :   5.0000e-05

             **** THE GBW FILE WAS UPDATED (/Users/mattyjones/GoogleDrive/Boise/Code/MorphCT/tests/output_EZ/donor_polymer/chromophores/input_orca/pair/00008-00024.gbw) ****
             **** DENSITY FILE WAS UPDATED (/Users/mattyjones/GoogleDrive/Boise/Code/MorphCT/tests/output_EZ/donor_polymer/chromophores/input_orca/pair/00008-00024.scfp.tmp) ****
             **** ENERGY FILE WAS UPDATED (/Users/mattyjones/GoogleDrive/Boise/Code/MorphCT/tests/output_EZ/donor_polymer/chromophores/input_orca/pair/00008-00024.en.tmp) ****
----------------
ORBITAL ENERGIES
----------------

  NO   OCC          E(Eh)            E(eV) 
   0   2.0000      -1.561256       -42.4839 
   1   2.0000      -1.556066       -42.3427 
   2   2.0000      -1.392416       -37.8896 
   3   2.0000      -1.381942       -37.6046 
   4   2.0000      -1.290457       -35.1151 
   5   2.0000      -1.286882       -35.0178 
   6   2.0000      -1.188548       -32.3420 
   7   2.0000      -1.182390       -32.1745 
   8   2.0000      -1.120705       -30.4959 
   9   2.0000      -1.115299       -30.3488 
  10   2.0000      -1.044040       -28.4098 
  11   2.0000      -1.031073       -28.0569 
  12   2.0000      -0.974229       -26.5101 
  13   2.0000      -0.949306       -25.8319 
  14   2.0000      -0.913604       -24.8604 
  15   2.0000      -0.898555       -24.4509 
  16   2.0000      -0.861077       -23.4311 
  17   2.0000      -0.837013       -22.7763 
  18   2.0000      -0.833573       -22.6827 
  19   2.0000      -0.825457       -22.4618 
  20   2.0000      -0.774494       -21.0751 
  21   2.0000      -0.768344       -20.9077 
  22   2.0000      -0.733958       -19.9720 
  23   2.0000      -0.727521       -19.7968 
  24   2.0000      -0.699973       -19.0472 
  25   2.0000      -0.690284       -18.7836 
  26   2.0000      -0.677126       -18.4255 
  27   2.0000      -0.667648       -18.1676 
  28   2.0000      -0.651492       -17.7280 
  29   2.0000      -0.638840       -17.3837 
  30   2.0000      -0.616287       -16.7700 
  31   2.0000      -0.609749       -16.5921 
  32   2.0000      -0.601656       -16.3719 
  33   2.0000      -0.587265       -15.9803 
  34   2.0000      -0.578446       -15.7403 
  35   2.0000      -0.576867       -15.6973 
  36   2.0000      -0.566556       -15.4168 
  37   2.0000      -0.564819       -15.3695 
  38   2.0000      -0.561147       -15.2696 
  39   2.0000      -0.551614       -15.0102 
  40   2.0000      -0.540187       -14.6992 
  41   2.0000      -0.526872       -14.3369 
  42   2.0000      -0.518906       -14.1201 
  43   2.0000      -0.518334       -14.1046 
  44   2.0000      -0.507197       -13.8015 
  45   2.0000      -0.506939       -13.7945 
  46   2.0000      -0.494026       -13.4431 
  47   2.0000      -0.493502       -13.4289 
  48   2.0000      -0.491383       -13.3712 
  49   2.0000      -0.485688       -13.2162 
  50   2.0000      -0.476627       -12.9697 
  51   2.0000      -0.474067       -12.9000 
  52   2.0000      -0.469533       -12.7766 
  53   2.0000      -0.464099       -12.6288 
  54   2.0000      -0.462296       -12.5797 
  55   2.0000      -0.454238       -12.3605 
  56   2.0000      -0.441087       -12.0026 
  57   2.0000      -0.436214       -11.8700 
  58   2.0000      -0.357170        -9.7191 
  59   2.0000      -0.353532        -9.6201 
  60   2.0000      -0.305087        -8.3019 
  61   2.0000      -0.304881        -8.2962 
  62   0.0000       0.006999         0.1904 
  63   0.0000       0.007704         0.2096 
  64   0.0000       0.064734         1.7615 
  65   0.0000       0.066703         1.8151 
  66   0.0000       0.071906         1.9567 
  67   0.0000       0.072774         1.9803 
  68   0.0000       0.083431         2.2703 
  69   0.0000       0.088801         2.4164 
  70   0.0000       0.102339         2.7848 
  71   0.0000       0.104842         2.8529 
  72   0.0000       0.106965         2.9107 
  73   0.0000       0.108038         2.9399 
  74   0.0000       0.121879         3.3165 
  75   0.0000       0.124494         3.3877 
  76   0.0000       0.141325         3.8457 
  77   0.0000       0.142630         3.8812 
  78   0.0000       0.158179         4.3043 
  79   0.0000       0.158665         4.3175 
  80   0.0000       0.166091         4.5196 
  81   0.0000       0.166874         4.5409 
  82   0.0000       0.172707         4.6996 
  83   0.0000       0.173034         4.7085 
  84   0.0000       0.203158         5.5282 
  85   0.0000       0.204253         5.5580 
  86   0.0000       0.232553         6.3281 
  87   0.0000       0.232958         6.3391 
  88   0.0000       0.234277         6.3750 
  89   0.0000       0.237596         6.4653 
  90   0.0000       0.237609         6.4657 
  91   0.0000       0.238393         6.4870 
  92   0.0000       0.239080         6.5057 
  93   0.0000       0.239365         6.5135 
  94   0.0000       0.240057         6.5323 
  95   0.0000       0.240394         6.5415 
  96   0.0000       0.241219         6.5639 
  97   0.0000       0.242866         6.6087 
  98   0.0000       0.242921         6.6102 
  99   0.0000       0.244011         6.6399 
 100   0.0000       0.244341         6.6489 
 101   0.0000       0.248096         6.7510 
 102   0.0000       0.252840         6.8801 
 103   0.0000       0.257026         6.9940 
 104   0.0000       0.265098         7.2137 
 105   0.0000       0.267169         7.2700 
 106   0.0000       0.269167         7.3244 
 107   0.0000       0.282023         7.6742 
 108   0.0000       0.297338         8.0910 
 109   0.0000       0.309229         8.4145 
 110   0.0000       0.309673         8.4266 
 111   0.0000       0.310938         8.4611 
 112   0.0000       0.339135         9.2283 
 113   0.0000       0.347186         9.4474 
 114   0.0000       0.353577         9.6213 
 115   0.0000       0.361715         9.8428 
 116   0.0000       0.411196        11.1892 
 117   0.0000       0.418649        11.3920 
 118   0.0000       0.424815        11.5598 
 119   0.0000       0.430037        11.7019 
-------
TIMINGS
-------

Total SCF time: 0 days 0 hours 0 min 0 sec 

Total time                  ....       0.131 sec
Sum of individual times     ....       0.106 sec  ( 81.3%)

Fock matrix formation       ....       0.048 sec  ( 36.7%)
Diagonalization             ....       0.025 sec  ( 18.8%)
Density matrix formation    ....       0.005 sec  (  3.9%)
Population analysis         ....       0.000 sec  (  0.0%)
Initial guess               ....       0.003 sec  (  2.2%)
Orbital Transformation      ....       0.000 sec  (  0.0%)
Orbital Orthonormalization  ....       0.000 sec  (  0.0%)
DIIS solution               ....       0.020 sec  ( 15.2%)
SOSCF solution              ....       0.006 sec  (  4.5%)

-------------------------   --------------------
FINAL SINGLE POINT ENERGY       -22.456267627985
-------------------------   --------------------


                            ***************************************
                            *     ORCA property calculations      *
                            ***************************************

                                    ---------------------
                                    Active property flags
                                    ---------------------
   (+) Dipole Moment


------------------------------------------------------------------------------
                       ORCA ELECTRIC PROPERTIES CALCULATION
------------------------------------------------------------------------------

Dipole Moment Calculation                       ... on
Quadrupole Moment Calculation                   ... off
Polarizability Calculation                      ... off
GBWName                                         ... /Users/mattyjones/GoogleDrive/Boise/Code/MorphCT/tests/output_EZ/donor_polymer/chromophores/input_orca/pair/00008-00024.gbw
Electron density file                           ... /Users/mattyjones/GoogleDrive/Boise/Code/MorphCT/tests/output_EZ/donor_polymer/chromophores/input_orca/pair/00008-00024.scfp.tmp

-------------
DIPOLE MOMENT
-------------
                                X             Y             Z
Electronic contribution:     24.13525      26.83808      74.90906
Nuclear contribution   :    -14.10596     -15.33987     -40.00729
                        -----------------------------------------
Total Dipole Moment    :     10.02929      11.49821      34.90177
                        -----------------------------------------
Magnitude (a.u.)       :     38.09106
Magnitude (Debye)      :     96.81978


Timings for individual modules:

Sum of individual times         ...        0.205 sec (=   0.003 min)
STO integral calculation        ...        0.038 sec (=   0.001 min)  18.7 %
SCF iterations                  ...        0.166 sec (=   0.003 min)  81.3 %
                             ****ORCA TERMINATED NORMALLY****
TOTAL RUN TIME: 0 days 0 hours 0 minutes 0 seconds 516 msec

