
                                 *****************
                                 * O   R   C   A *
                                 *****************

           --- An Ab Initio, DFT and Semiempirical electronic structure package ---

                  #######################################################
                  #                        -***-                        #
                  #  Department of molecular theory and spectroscopy    #
                  #              Directorship: Frank Neese              #
                  # Max Planck Institute for Chemical Energy Conversion #
                  #                  D-45470 Muelheim/Ruhr              #
                  #                       Germany                       #
                  #                                                     #
                  #                  All rights reserved                #
                  #                        -***-                        #
                  #######################################################


                         Program Version 4.0.1.2 - RELEASE -


 With contributions from (in alphabetic order):
   Daniel Aravena         : Magnetic Properties
   Michael Atanasov       : Ab Initio Ligand Field Theory
   Ute Becker             : Parallelization
   Martin Brehm           : Molecular dynamics
   Dmytro Bykov           : SCF Hessian
   Vijay G. Chilkuri      : MRCI spin determinant printing
   Dipayan Datta          : RHF DLPNO-CCSD density
   Achintya Kumar Dutta   : EOM-CC, STEOM-CC
   Dmitry Ganyushin       : Spin-Orbit,Spin-Spin,Magnetic field MRCI
   Yang Guo               : DLPNO-NEVPT2, CIM, IAO-localization
   Andreas Hansen         : Spin unrestricted coupled pair/coupled cluster methods
   Lee Huntington         : MR-EOM, pCC
   Robert Izsak           : Overlap fitted RIJCOSX, COSX-SCS-MP3, EOM
   Christian Kollmar      : KDIIS, OOCD, Brueckner-CCSD(T), CCSD density
   Simone Kossmann        : Meta GGA functionals, TD-DFT gradient, OOMP2, MP2 Hessian
   Martin Krupicka        : AUTO-CI
   Dagmar Lenk            : GEPOL surface
   Dimitrios Liakos       : Extrapolation schemes; parallel MDCI
   Dimitrios Manganas     : ROCIS; embedding schemes
   Dimitrios Pantazis     : SARC Basis sets
   Taras Petrenko         : DFT Hessian,TD-DFT gradient, ASA, ECA, R-Raman, ABS, FL, XAS/XES, NRVS
   Peter Pinski           : DLPNO-MP2
   Christoph Reimann      : Effective Core Potentials
   Marius Retegan         : Local ZFS, SOC
   Christoph Riplinger    : Optimizer, TS searches, QM/MM, DLPNO-CCSD(T), (RO)-DLPNO pert. Triples
   Tobias Risthaus        : Range-separated hybrids, TD-DFT gradient, RPA, STAB
   Michael Roemelt        : Restricted open shell CIS
   Masaaki Saitow         : Open-shell DLPNO
   Barbara Sandhoefer     : DKH picture change effects
   Kantharuban Sivalingam : CASSCF convergence, NEVPT2, FIC-MRCI
   Georgi Stoychev        : AutoAux
   Boris Wezisla          : Elementary symmetry handling
   Frank Wennmohs         : Technical directorship


 We gratefully acknowledge several colleagues who have allowed us to
 interface, adapt or use parts of their codes:
   Stefan Grimme, W. Hujo, H. Kruse,             : VdW corrections, initial TS optimization,
                  C. Bannwarth                     DFT functionals, gCP, sTDA/sTD-DF
   Ed Valeev                                     : LibInt (2-el integral package), F12 methods
   Garnet Chan, S. Sharma, J. Yang, R. Olivares  : DMRG
   Ulf Ekstrom                                   : XCFun DFT Library
   Mihaly Kallay                                 : mrcc  (arbitrary order and MRCC methods)
   Andreas Klamt, Michael Diedenhofen            : otool_cosmo (COSMO solvation model)
   Jiri Pittner, Ondrej Demel                    : Mk-CCSD
   Frank Weinhold                                : gennbo (NPA and NBO analysis)
   Christopher J. Cramer and Donald G. Truhlar   : smd solvation model


 Your calculation uses the libint2 library for the computation of 2-el integrals
 For citations please refer to: http://libint.valeyev.net

 This ORCA versions uses:
   CBLAS   interface :  Fast vector & matrix operations
   LAPACKE interface :  Fast linear algebra routines
   SCALAPACK package :  Parallel linear algebra routines


leaving
Your calculation utilizes the basis: def2-SVP
   F. Weigend and R. Ahlrichs, Phys. Chem. Chem. Phys. 7, 3297 (2005).

================================================================================
                                        WARNINGS
                       Please study these warnings very carefully!
================================================================================

Warning: TCutStore was < 0. Adjusted to Thresh (uncritical)

WARNING: Direct SCF is incompatible with Method<>HF and Method<>DFT
  ===> : conventional SCF is chosen

WARNING: The NDO methods need Guess=HUECKEL or Guess=HCORE or Guess=MOREAD
  ===> : Guess is set to Hueckel

WARNING: The NDO methods need %rel::SOCType==1
  ===> : %rel::SOCType is set to 1

WARNING: The NDO methods cannot have frozencore=1
  ===> : %method FrozenCore=0 end

INFO   : the flag for use of LIBINT has been found!

================================================================================
                                       INPUT FILE
================================================================================
NAME = /home/mattyjones/Software/morphct/tests/output_EZ/donor_polymer/chromophores/input_orca/pair/00008-00029.inp
|  1> # ================================================================
|  2> # Orca input file made by Matty Jones
|  3> # ================================================================
|  4> ! ZINDO/S 
|  5> ! NOPOP
|  6> ! NOMOPRINT
|  7> * xyz 0   1
|  8>  C  -9.18265  -9.59369  -7.96208
|  9>  C  -9.94239  -10.66970  -7.50066
| 10>  C  -9.24799  -11.52751  -6.59169
| 11>  C  -7.93331  -11.12684  -6.33405
| 12>  S  -7.70249  -9.75165  -7.23183
| 13>  H  -11.01593  -10.88694  -7.82202
| 14>  C  -9.92545  -12.82372  -5.91345
| 15>  C  -10.89685  -13.91942  -6.78898
| 16>  C  -12.56299  -13.57658  -6.79098
| 17>  H  -12.90535  -13.56766  -5.68603
| 18>  H  -12.69143  -12.51368  -7.22531
| 19>  H  -10.76037  -14.95998  -6.31633
| 20>  H  -10.53353  -13.93035  -7.87973
| 21>  H  -10.59111  -12.47136  -5.01932
| 22>  H  -9.08109  -13.50129  -5.47355
| 23>  C  -13.50755  -14.61082  -7.62865
| 24>  C  -14.00269  -16.01640  -6.81898
| 25>  C  -15.43137  -15.90547  -5.93570
| 26>  H  -16.04638  -14.99519  -6.29671
| 27>  H  -15.17630  -15.78063  -4.81333
| 28>  H  -16.04849  -16.87388  -6.08496
| 29>  H  -13.15799  -16.32758  -6.09953
| 30>  H  -14.14836  -16.83771  -7.61615
| 31>  H  -14.46990  -14.05454  -7.95342
| 32>  H  -12.94380  -14.94912  -8.58052
| 33>  C  16.08454  13.87919  5.43252
| 34>  C  14.74116  14.07143  5.75854
| 35>  C  14.51404  14.39145  7.13341
| 36>  C  15.68397  14.45222  7.89688
| 37>  S  16.92045  14.11158  6.84544
| 38>  H  13.89138  13.98292  5.00120
| 39>  C  13.15265  14.70162  7.98535
| 40>  C  11.64220  13.93869  8.38298
| 41>  C  10.05150  13.83655  7.78192
| 42>  H  9.37418  14.13626  8.68157
| 43>  H  9.97354  14.68543  6.99440
| 44>  H  11.96174  12.82382  8.44390
| 45>  H  11.46930  14.32345  9.46620
| 46>  H  12.72803  15.69454  7.49481
| 47>  H  13.51248  15.00813  9.06001
| 48>  C  9.39853  12.49408  7.13776
| 49>  C  9.40360  12.41820  5.46004
| 50>  C  8.19335  11.39561  4.88939
| 51>  H  8.21493  10.39825  5.47370
| 52>  H  8.35819  11.19809  3.76200
| 53>  H  7.16739  11.91231  5.04387
| 54>  H  9.23676  13.47220  5.03005
| 55>  H  10.42329  12.00974  5.11329
| 56>  H  9.97896  11.56799  7.52593
| 57>  H  8.29883  12.39957  7.49076
| 58>  H  -9.48761  -8.83538  -8.63704
| 59>  H  -7.23123  -11.60248  -5.69808
| 60>  H  16.48580  13.63591  4.48204
| 61>  H  15.76382  14.67033  8.93112
| 62> *
| 63> 
| 64>                          ****END OF INPUT****
================================================================================

                       ****************************
                       * Single Point Calculation *
                       ****************************

---------------------------------
CARTESIAN COORDINATES (ANGSTROEM)
---------------------------------
  C     -9.182650   -9.593690   -7.962080
  C     -9.942390  -10.669700   -7.500660
  C     -9.247990  -11.527510   -6.591690
  C     -7.933310  -11.126840   -6.334050
  S     -7.702490   -9.751650   -7.231830
  H    -11.015930  -10.886940   -7.822020
  C     -9.925450  -12.823720   -5.913450
  C    -10.896850  -13.919420   -6.788980
  C    -12.562990  -13.576580   -6.790980
  H    -12.905350  -13.567660   -5.686030
  H    -12.691430  -12.513680   -7.225310
  H    -10.760370  -14.959980   -6.316330
  H    -10.533530  -13.930350   -7.879730
  H    -10.591110  -12.471360   -5.019320
  H     -9.081090  -13.501290   -5.473550
  C    -13.507550  -14.610820   -7.628650
  C    -14.002690  -16.016400   -6.818980
  C    -15.431370  -15.905470   -5.935700
  H    -16.046380  -14.995190   -6.296710
  H    -15.176300  -15.780630   -4.813330
  H    -16.048490  -16.873880   -6.084960
  H    -13.157990  -16.327580   -6.099530
  H    -14.148360  -16.837710   -7.616150
  H    -14.469900  -14.054540   -7.953420
  H    -12.943800  -14.949120   -8.580520
  C     16.084540   13.879190    5.432520
  C     14.741160   14.071430    5.758540
  C     14.514040   14.391450    7.133410
  C     15.683970   14.452220    7.896880
  S     16.920450   14.111580    6.845440
  H     13.891380   13.982920    5.001200
  C     13.152650   14.701620    7.985350
  C     11.642200   13.938690    8.382980
  C     10.051500   13.836550    7.781920
  H      9.374180   14.136260    8.681570
  H      9.973540   14.685430    6.994400
  H     11.961740   12.823820    8.443900
  H     11.469300   14.323450    9.466200
  H     12.728030   15.694540    7.494810
  H     13.512480   15.008130    9.060010
  C      9.398530   12.494080    7.137760
  C      9.403600   12.418200    5.460040
  C      8.193350   11.395610    4.889390
  H      8.214930   10.398250    5.473700
  H      8.358190   11.198090    3.762000
  H      7.167390   11.912310    5.043870
  H      9.236760   13.472200    5.030050
  H     10.423290   12.009740    5.113290
  H      9.978960   11.567990    7.525930
  H      8.298830   12.399570    7.490760
  H     -9.487610   -8.835380   -8.637040
  H     -7.231230  -11.602480   -5.698080
  H     16.485800   13.635910    4.482040
  H     15.763820   14.670330    8.931120

----------------------------
CARTESIAN COORDINATES (A.U.)
----------------------------
  NO LB      ZA    FRAG     MASS         X           Y           Z
   0 C     4.0000    0    12.011  -17.352694  -18.129447  -15.046151
   1 C     4.0000    0    12.011  -18.788394  -20.162811  -14.174193
   2 C     4.0000    0    12.011  -17.476168  -21.783837  -12.456489
   3 C     4.0000    0    12.011  -14.991783  -21.026680  -11.969620
   4 S     6.0000    0    32.060  -14.555597  -18.427948  -13.666178
   5 H     1.0000    0     1.008  -20.817091  -20.573335  -14.781476
   6 C     4.0000    0    12.011  -18.756382  -24.233319  -11.174801
   7 C     4.0000    0    12.011  -20.592062  -26.303892  -12.829313
   8 C     4.0000    0    12.011  -23.740611  -25.656018  -12.833092
   9 H     1.0000    0     1.008  -24.387577  -25.639162  -10.745039
  10 H     1.0000    0     1.008  -23.983327  -23.647428  -13.653857
  11 H     1.0000    0     1.008  -20.334152  -28.270265  -11.936134
  12 H     1.0000    0     1.008  -19.905487  -26.324546  -14.890532
  13 H     1.0000    0     1.008  -20.014297  -23.567455   -9.485140
  14 H     1.0000    0     1.008  -17.160773  -25.513741  -10.343510
  15 C     4.0000    0    12.011  -25.525570  -27.610448  -14.416059
  16 C     4.0000    0    12.011  -26.461249  -30.266610  -12.886005
  17 C     4.0000    0    12.011  -29.161063  -30.056982  -11.216847
  18 H     1.0000    0     1.008  -30.323264  -28.336802  -11.899057
  19 H     1.0000    0     1.008  -28.679051  -29.821069   -9.095875
  20 H     1.0000    0     1.008  -30.327251  -31.887012  -11.498908
  21 H     1.0000    0     1.008  -24.864998  -30.854655  -11.526441
  22 H     1.0000    0     1.008  -26.736526  -31.818661  -14.392438
  23 H     1.0000    0     1.008  -27.344148  -26.559232  -15.029786
  24 H     1.0000    0     1.008  -24.460237  -28.249743  -16.214833
  25 C     4.0000    0    12.011   30.395376   26.227868   10.265975
  26 C     4.0000    0    12.011   27.856755   26.591149   10.882064
  27 C     4.0000    0    12.011   27.427561   27.195899   13.480191
  28 C     4.0000    0    12.011   29.638408   27.310738   14.922941
  29 S     6.0000    0    32.060   31.975017   26.667022   12.936007
  30 H     1.0000    0     1.008   26.250904   26.423889    9.450898
  31 C     4.0000    0    12.011   24.854906   27.782036   15.090125
  32 C     4.0000    0    12.011   22.000570   26.340307   15.841536
  33 C     4.0000    0    12.011   18.994582   26.147290   14.705698
  34 H     1.0000    0     1.008   17.714633   26.713660   16.405790
  35 H     1.0000    0     1.008   18.847259   27.751441   13.217500
  36 H     1.0000    0     1.008   22.604413   24.233508   15.956659
  37 H     1.0000    0     1.008   21.673836   27.067398   17.888526
  38 H     1.0000    0     1.008   24.052491   29.658382   14.163138
  39 H     1.0000    0     1.008   25.534887   28.361255   17.120938
  40 C     4.0000    0    12.011   17.760648   23.610389   13.488412
  41 C     4.0000    0    12.011   17.770229   23.466997   10.317980
  42 C     4.0000    0    12.011   15.483188   21.534582    9.239608
  43 H     1.0000    0     1.008   15.523968   19.649845   10.343794
  44 H     1.0000    0     1.008   15.794690   21.161323    7.109150
  45 H     1.0000    0     1.008   13.544404   22.511004    9.531533
  46 H     1.0000    0     1.008   17.454947   25.458768    9.505417
  47 H     1.0000    0     1.008   19.697164   22.695120    9.662718
  48 H     1.0000    0     1.008   18.857502   21.860333   14.221947
  49 H     1.0000    0     1.008   15.682516   23.431791   14.155485
  50 H     1.0000    0     1.008  -17.928985  -16.696448  -16.321640
  51 H     1.0000    0     1.008  -13.665044  -21.925510  -10.767811
  52 H     1.0000    0     1.008   31.153647   25.768135    8.469828
  53 H     1.0000    0     1.008   29.789303   27.722906   16.877371

--------------------------------
INTERNAL COORDINATES (ANGSTROEM)
--------------------------------
 C      0   0   0     0.000000000000     0.00000000     0.00000000
 C      1   0   0     1.395675751778     0.00000000     0.00000000
 C      2   1   0     1.429774743447   114.10130201     0.00000000
 C      3   2   1     1.398319820678   113.69358379     0.00000000
 S      1   2   3     1.658038012140   105.47960917     0.00000000
 H      2   1   3     1.141469928995   124.44449067   181.47399330
 C      3   2   1     1.612179243540   123.07565577   179.23672888
 C      7   3   2     1.706085938896   122.66492143    43.46178077
 C      8   7   3     1.701048431174   115.39480044   268.67484621
 H      9   8   7     1.156807865853   106.87651344   301.45625110
 H      9   8   7     1.155376904954   107.14208299    57.72040812
 H      8   7   3     1.150995189608   107.59947675   148.83170105
 H      8   7   3     1.149720161518   108.24242755    29.88407272
 H      7   3   2     1.169071966177   108.58397952   280.52354611
 H      7   3   2     1.168570461932   108.71905391   164.02454093
 C      9   8   7     1.632034619761   116.08896465   179.76255050
 C     16   9   8     1.695990644107   116.68802680    84.33904693
 C     17  16   9     1.683334656478   116.33824717    88.63015345
 H     18  17  16     1.156362918205   109.84343032    19.05800416
 H     18  17  16     1.157739239812   109.19645618   258.87895572
 H     18  17  16     1.157986860936   109.24202114   139.24251885
 H     17  16   9     1.152371201003   107.92956592   326.86288464
 H     17  16   9     1.153798021276   107.27507080   209.10756197
 H     16   9   8     1.158033036575   108.69289014   205.13663143
 H     16   9   8     1.156856710833   109.00186560   323.03257663
 C      5   1   2    35.841667877611   133.25762385   215.71567700
 C     26   5   1     1.395677284475    62.26064569    45.65543602
 C     27  26   5     1.429777539235   114.10117997   135.07029135
 C     28  27  26     1.398326013024   113.69351787     0.00000000
 S     26   5   1     1.658039072700   136.72788751   128.83992047
 H     27  26   5     1.141719730976   123.42061123   315.08160071
 C     28  27  26     1.635661922464   132.49365045   179.92005789
 C     32  28  27     1.738283925111   139.38873644    58.18132897
 C     33  32  28     1.703535204567   139.19893836   269.00491729
 H     34  33  32     1.165314802532   104.76888233   233.50418536
 H     34  33  32     1.160544168225   104.96881947   346.34124802
 H     33  32  28     1.161357901295   101.20080314    33.70605516
 H     33  32  28     1.162454401686   101.36908683   144.92522007
 H     32  28  27     1.186095174259   103.96335722   296.24723868
 H     32  28  27     1.174018792269   105.73451800   185.21889198
 C     34  33  32     1.625895946056   124.35360368   111.02757076
 C     41  34  33     1.679442728318   115.58658072   261.60948648
 C     42  41  34     1.684053678806   111.33209480   204.06293399
 H     43  42  41     1.156118870229   109.82581753   312.25469510
 H     43  42  41     1.156371302005   109.36824118   191.39671317
 H     43  42  41     1.159067246539   108.67915299    72.01517164
 H     42  41  34     1.150496842977   109.36164441   324.56309290
 H     42  41  34     1.151886639475   108.62742639    84.53410390
 H     41  34  33     1.159835170143   109.00816208    22.46921140
 H     41  34  33     1.158827523879   109.13338934   140.12409010
 H      1   2   3     1.060002669478   127.26045305   180.00037590
 H      4   3   2     1.060003574003   127.20659271   180.00006241
 H     26   5   1     1.060003290750    77.47172603   260.81121874
 H     29  28  27     1.060000175566   127.20641829   180.00025451

---------------------------
INTERNAL COORDINATES (A.U.)
---------------------------
 C      0   0   0     0.000000000000     0.00000000     0.00000000
 C      1   0   0     2.637444942614     0.00000000     0.00000000
 C      2   1   0     2.701882698313   114.10130201     0.00000000
 C      3   2   1     2.642441508715   113.69358379     0.00000000
 S      1   2   3     3.133237762575   105.47960917     0.00000000
 H      2   1   3     2.157065555907   124.44449067   181.47399330
 C      3   2   1     3.046577249082   123.07565577   179.23672888
 C      7   3   2     3.224035185448   122.66492143    43.46178077
 C      8   7   3     3.214515675456   115.39480044   268.67484621
 H      9   8   7     2.186050056029   106.87651344   301.45625110
 H      9   8   7     2.183345931820   107.14208299    57.72040812
 H      8   7   3     2.175065689819   107.59947675   148.83170105
 H      8   7   3     2.172656235916   108.24242755    29.88407272
 H      7   3   2     2.209225846919   108.58397952   280.52354611
 H      7   3   2     2.208278141241   108.71905391   164.02454093
 C      9   8   7     3.084098472428   116.08896465   179.76255050
 C     16   9   8     3.204957843056   116.68802680    84.33904693
 C     17  16   9     3.181041492482   116.33824717    88.63015345
 H     18  17  16     2.185209226830   109.84343032    19.05800416
 H     18  17  16     2.187810097738   109.19645618   258.87895572
 H     18  17  16     2.188278033848   109.24202114   139.24251885
 H     17  16   9     2.177665974513   107.92956592   326.86288464
 H     17  16   9     2.180362274072   107.27507080   209.10756197
 H     16   9   8     2.188365293161   108.69289014   205.13663143
 H     16   9   8     2.186142359664   109.00186560   323.03257663
 C      5   1   2    67.730936471648   133.25762385   215.71567700
 C     26   5   1     2.637447838993    62.26064569    45.65543602
 C     27  26   5     2.701887981585   114.10117997   135.07029135
 C     28  27  26     2.642453210554   113.69351787     0.00000000
 S     26   5   1     3.133239766744   136.72788751   128.83992047
 H     27  26   5     2.157537613239   123.42061123   315.08160071
 C     28  27  26     3.090953081141   132.49365045   179.92005789
 C     32  28  27     3.284880561458   139.38873644    58.18132897
 C     33  32  28     3.219214996126   139.19893836   269.00491729
 H     34  33  32     2.202125836590   104.76888233   233.50418536
 H     34  33  32     2.193110644264   104.96881947   346.34124802
 H     33  32  28     2.194648376913   101.20080314    33.70605516
 H     33  32  28     2.196720462359   101.36908683   144.92522007
 H     32  28  27     2.241395048115   103.96335722   296.24723868
 H     32  28  27     2.218573993465   105.73451800   185.21889198
 C     34  33  32     3.072498060298   124.35360368   111.02757076
 C     41  34  33     3.173686814126   115.58658072   261.60948648
 C     42  41  34     3.182400247766   111.33209480   204.06293399
 H     43  42  41     2.184748042992   109.82581753   312.25469510
 H     43  42  41     2.185225069915   109.36824118   191.39671317
 H     43  42  41     2.190319666757   108.67915299    72.01517164
 H     42  41  34     2.174123951167   109.36164441   324.56309290
 H     42  41  34     2.176750285930   108.62742639    84.53410390
 H     41  34  33     2.191770832060   109.00816208    22.46921140
 H     41  34  33     2.189866656582   109.13338934   140.12409010
 H      1   2   3     2.003114746538   127.26045305   180.00037590
 H      4   3   2     2.003116455844   127.20659271   180.00006241
 H     26   5   1     2.003115920572    77.47172603   260.81121874
 H     29  28  27     2.003110033728   127.20641829   180.00025451

----------------------------
SLATER BASIS SET DIM= 120
----------------------------
  0 C     2 shells
 l=0 nsto= 1
    2       1.625000000000        1.000000000000
 l=1 nsto= 1
    2       1.625000000000        1.000000000000
  1 C     2 shells
 l=0 nsto= 1
    2       1.625000000000        1.000000000000
 l=1 nsto= 1
    2       1.625000000000        1.000000000000
  2 C     2 shells
 l=0 nsto= 1
    2       1.625000000000        1.000000000000
 l=1 nsto= 1
    2       1.625000000000        1.000000000000
  3 C     2 shells
 l=0 nsto= 1
    2       1.625000000000        1.000000000000
 l=1 nsto= 1
    2       1.625000000000        1.000000000000
  4 S     2 shells
 l=0 nsto= 1
    3       1.925000000000        1.000000000000
 l=1 nsto= 1
    3       1.925000000000        1.000000000000
  5 H     1 shells
 l=0 nsto= 1
    1       1.200000000000        1.000000000000
  6 C     2 shells
 l=0 nsto= 1
    2       1.625000000000        1.000000000000
 l=1 nsto= 1
    2       1.625000000000        1.000000000000
  7 C     2 shells
 l=0 nsto= 1
    2       1.625000000000        1.000000000000
 l=1 nsto= 1
    2       1.625000000000        1.000000000000
  8 C     2 shells
 l=0 nsto= 1
    2       1.625000000000        1.000000000000
 l=1 nsto= 1
    2       1.625000000000        1.000000000000
  9 H     1 shells
 l=0 nsto= 1
    1       1.200000000000        1.000000000000
 10 H     1 shells
 l=0 nsto= 1
    1       1.200000000000        1.000000000000
 11 H     1 shells
 l=0 nsto= 1
    1       1.200000000000        1.000000000000
 12 H     1 shells
 l=0 nsto= 1
    1       1.200000000000        1.000000000000
 13 H     1 shells
 l=0 nsto= 1
    1       1.200000000000        1.000000000000
 14 H     1 shells
 l=0 nsto= 1
    1       1.200000000000        1.000000000000
 15 C     2 shells
 l=0 nsto= 1
    2       1.625000000000        1.000000000000
 l=1 nsto= 1
    2       1.625000000000        1.000000000000
 16 C     2 shells
 l=0 nsto= 1
    2       1.625000000000        1.000000000000
 l=1 nsto= 1
    2       1.625000000000        1.000000000000
 17 C     2 shells
 l=0 nsto= 1
    2       1.625000000000        1.000000000000
 l=1 nsto= 1
    2       1.625000000000        1.000000000000
 18 H     1 shells
 l=0 nsto= 1
    1       1.200000000000        1.000000000000
 19 H     1 shells
 l=0 nsto= 1
    1       1.200000000000        1.000000000000
 20 H     1 shells
 l=0 nsto= 1
    1       1.200000000000        1.000000000000
 21 H     1 shells
 l=0 nsto= 1
    1       1.200000000000        1.000000000000
 22 H     1 shells
 l=0 nsto= 1
    1       1.200000000000        1.000000000000
 23 H     1 shells
 l=0 nsto= 1
    1       1.200000000000        1.000000000000
 24 H     1 shells
 l=0 nsto= 1
    1       1.200000000000        1.000000000000
 25 C     2 shells
 l=0 nsto= 1
    2       1.625000000000        1.000000000000
 l=1 nsto= 1
    2       1.625000000000        1.000000000000
 26 C     2 shells
 l=0 nsto= 1
    2       1.625000000000        1.000000000000
 l=1 nsto= 1
    2       1.625000000000        1.000000000000
 27 C     2 shells
 l=0 nsto= 1
    2       1.625000000000        1.000000000000
 l=1 nsto= 1
    2       1.625000000000        1.000000000000
 28 C     2 shells
 l=0 nsto= 1
    2       1.625000000000        1.000000000000
 l=1 nsto= 1
    2       1.625000000000        1.000000000000
 29 S     2 shells
 l=0 nsto= 1
    3       1.925000000000        1.000000000000
 l=1 nsto= 1
    3       1.925000000000        1.000000000000
 30 H     1 shells
 l=0 nsto= 1
    1       1.200000000000        1.000000000000
 31 C     2 shells
 l=0 nsto= 1
    2       1.625000000000        1.000000000000
 l=1 nsto= 1
    2       1.625000000000        1.000000000000
 32 C     2 shells
 l=0 nsto= 1
    2       1.625000000000        1.000000000000
 l=1 nsto= 1
    2       1.625000000000        1.000000000000
 33 C     2 shells
 l=0 nsto= 1
    2       1.625000000000        1.000000000000
 l=1 nsto= 1
    2       1.625000000000        1.000000000000
 34 H     1 shells
 l=0 nsto= 1
    1       1.200000000000        1.000000000000
 35 H     1 shells
 l=0 nsto= 1
    1       1.200000000000        1.000000000000
 36 H     1 shells
 l=0 nsto= 1
    1       1.200000000000        1.000000000000
 37 H     1 shells
 l=0 nsto= 1
    1       1.200000000000        1.000000000000
 38 H     1 shells
 l=0 nsto= 1
    1       1.200000000000        1.000000000000
 39 H     1 shells
 l=0 nsto= 1
    1       1.200000000000        1.000000000000
 40 C     2 shells
 l=0 nsto= 1
    2       1.625000000000        1.000000000000
 l=1 nsto= 1
    2       1.625000000000        1.000000000000
 41 C     2 shells
 l=0 nsto= 1
    2       1.625000000000        1.000000000000
 l=1 nsto= 1
    2       1.625000000000        1.000000000000
 42 C     2 shells
 l=0 nsto= 1
    2       1.625000000000        1.000000000000
 l=1 nsto= 1
    2       1.625000000000        1.000000000000
 43 H     1 shells
 l=0 nsto= 1
    1       1.200000000000        1.000000000000
 44 H     1 shells
 l=0 nsto= 1
    1       1.200000000000        1.000000000000
 45 H     1 shells
 l=0 nsto= 1
    1       1.200000000000        1.000000000000
 46 H     1 shells
 l=0 nsto= 1
    1       1.200000000000        1.000000000000
 47 H     1 shells
 l=0 nsto= 1
    1       1.200000000000        1.000000000000
 48 H     1 shells
 l=0 nsto= 1
    1       1.200000000000        1.000000000000
 49 H     1 shells
 l=0 nsto= 1
    1       1.200000000000        1.000000000000
 50 H     1 shells
 l=0 nsto= 1
    1       1.200000000000        1.000000000000
 51 H     1 shells
 l=0 nsto= 1
    1       1.200000000000        1.000000000000
 52 H     1 shells
 l=0 nsto= 1
    1       1.200000000000        1.000000000000
 53 H     1 shells
 l=0 nsto= 1
    1       1.200000000000        1.000000000000
------------------------------------------------------------------------------
                           ORCA NDO INTEGRAL CALCULATION
------------------------------------------------------------------------------

--------------
NDO PARAMETERS
--------------

Gamma integral treatment              ... Mataga-Nishimoto
Nuclear repulsuion treatment          ... Direct (ZA*ZB/RAB)
Interaction factors:
s-s (sigma) =    1.0000
s-p (sigma) =    1.0000
s-d (sigma) =    1.0000
p-p (sigma) =    1.2670  p-p(pi) =    0.5850
p-d (sigma) =    1.0000  p-d(pi) =    1.0000
d-d (sigma) =    1.0000  d-d(pi) =    1.0000 d-d (delta) =    1.0000

fGamma parameter for Mataga-Nishimoto gamma integrals:    1.2000

--------------------------
Parameters for Element H :
--------------------------
 One-electron parameters (in eV)
  U(s)  =   -13.060000 Beta(s) =    12.000000 Neff(s) =     1.000000
 One-center electron repulsion parameters (in eV)
  G(s,s)=    12.850000
--------------------------
Parameters for Element C :
--------------------------
 One-electron parameters (in eV)
  U(s)  =   -50.870766 Beta(s) =    17.000000 Neff(s) =     2.000000
  U(p)  =   -41.599980 Beta(p) =    17.000000 Neff(p) =     2.000000 
 One-center electron repulsion parameters (in eV)
  G(s,s)=    11.110000
  G(s,p)=    11.110000 G(p,p)  =    11.110000
 Slater-Condon parameters (in eV)
 F2(p,p)=     4.5098 G1(s,p)=    6.8977
--------------------------
Parameters for Element S :
--------------------------
 One-electron parameters (in eV)
  U(s)  =   -69.509597 Beta(s) =    15.000000 Neff(s) =     2.000000
  U(p)  =   -60.725746 Beta(p) =    15.000000 Neff(p) =     4.000000 
 One-center electron repulsion parameters (in eV)
  G(s,s)=    10.090000
  G(s,p)=    10.090000 G(p,p)  =    10.090000
 Slater-Condon parameters (in eV)
 F2(p,p)=     4.5377 G1(s,p)=    3.0756

 Number of atoms                    ....   54
 Number of basis functions          ....  120

 Overlap integrals                  .... done
 One electron matrix                .... done
 Nuclear repulsion                  .... done
 Integral list                      .... done
 Electron-electron repulsion        .... done
-------------------------------------------------------------------------------
                                 ORCA SCF
-------------------------------------------------------------------------------

------------
SCF SETTINGS
------------
Hamiltonian:
 ZDO-Hamiltonian        Method          .... INDO


General Settings:
 Integral files         IntName         .... /home/mattyjones/Software/morphct/tests/output_EZ/donor_polymer/chromophores/input_orca/pair/00008-00029
 Hartree-Fock type      HFTyp           .... RHF
 Total Charge           Charge          ....    0
 Multiplicity           Mult            ....    1
 Number of Electrons    NEL             ....  124
 Basis Dimension        Dim             ....  120
 Nuclear Repulsion      ENuc            ....    635.2387973407 Eh

Convergence Acceleration:
 DIIS                   CNVDIIS         .... on
   Start iteration      DIISMaxIt       ....    12
   Startup error        DIISStart       ....  0.200000
   # of expansion vecs  DIISMaxEq       ....     5
   Bias factor          DIISBfac        ....   1.050
   Max. coefficient     DIISMaxC        ....  10.000
 Newton-Raphson         CNVNR           .... off
 SOSCF                  CNVSOSCF        .... on
   Start iteration      SOSCFMaxIt      ....   150
   Startup grad/error   SOSCFStart      ....  0.003300
 Level Shifting         CNVShift        .... on
   Level shift para.    LevelShift      ....    0.2500
   Turn off err/grad.   ShiftErr        ....    0.0010
 Zerner damping         CNVZerner       .... off
 Static damping         CNVDamp         .... on
   Fraction old density DampFac         ....    0.7000
   Max. Damping (<1)    DampMax         ....    0.9800
   Min. Damping (>=0)   DampMin         ....    0.0000
   Turn off err/grad.   DampErr         ....    0.1000
 Fernandez-Rico         CNVRico         .... off

SCF Procedure:
 Maximum # iterations   MaxIter         ....   125
 SCF integral mode      SCFMode         .... Conventional
 Integral Buffer length BufferLength    .... 1048576
 Integral index format  IndFormat       ....     0
 Integral value format  ValFormat       ....     0
 Integral Storage       Thresh          ....  1.000e-08 Eh

Convergence Tolerance:
 Convergence Check Mode ConvCheckMode   .... Total+1el-Energy
 Convergence forced     ConvForced      .... 0
 Energy Change          TolE            ....  1.000e-06 Eh
 1-El. energy change                    ....  1.000e-03 Eh
 Orbital Gradient       TolG            ....  5.000e-05
 Orbital Rotation angle TolX            ....  5.000e-05
 DIIS Error             TolErr          ....  1.000e-06


Diagonalization of the overlap matrix:
Smallest eigenvalue                        ... 1.698e-01
Time for diagonalization                   ...    0.003 sec
Threshold for overlap eigenvalues          ... 1.000e-08
Number of eigenvalues below threshold      ... 0
Time for construction of square roots      ...    0.000 sec
Total time needed                          ...    0.003 sec

-------------------------------
INITIAL GUESS: EXTENDED HUECKEL
-------------------------------
EHT matrix was read from disk
EHT matrix was diagonalized
Initial density was built
                      ------------------
                      INITIAL GUESS DONE
                      ------------------

 InCore treatment chosen:
   Memory dedicated               ...    1024 MB
   Memory needed                  ...      0 MB
   Number of tiny    integrals    ...       0
   Number of small   integrals    ...       0
   Number of regular integrals    ...    7392

--------------
SCF ITERATIONS
--------------
ITER       Energy         Delta-E        Max-DP      RMS-DP      [F,P]     Damp
  0    -24.0744602398   0.000000000000 0.04485256  0.00144026  0.0909917 0.7000
  1    -24.1160323665  -0.041572126668 0.04424594  0.00135741  0.0650595 0.7000
                               ***Turning on DIIS***
  2    -24.1467995914  -0.030767224918 0.11811092  0.00348809  0.0467920 0.0000
  3    -24.2277386490  -0.080939057613 0.02360874  0.00072986  0.0190994 0.0000
  4    -24.2121813514   0.015557297641 0.01606562  0.00049907  0.0084312 0.0000
  5    -24.2290315941  -0.016850242702 0.01133576  0.00033787  0.0050442 0.0000
  6    -24.2317857783  -0.002754184199 0.00845093  0.00023970  0.0030978 0.0000
                      *** Initiating the SOSCF procedure ***
                           *** Shutting down DIIS ***
                      *** Re-Reading the Fockian *** 
                      *** Removing any level shift *** 
ITER      Energy       Delta-E        Grad      Rot      Max-DP    RMS-DP
  7    -24.22757378   0.0042119950  0.003017  0.003017  0.005063  0.000135
  8    -24.22576100   0.0018127815  0.000802  0.002200  0.002543  0.000062
  9    -24.22577556  -0.0000145550  0.000356  0.002161  0.002833  0.000066
 10    -24.22578089  -0.0000053315  0.000027  0.000054  0.000135  0.000004
                 **** Energy Check signals convergence ****
              ***Rediagonalizing the Fockian in SOSCF/NRSCF***

               *****************************************************
               *                     SUCCESS                       *
               *           SCF CONVERGED AFTER  11 CYCLES          *
               *****************************************************


----------------
TOTAL SCF ENERGY
----------------

Total Energy       :          -24.22578093 Eh            -659.21701 eV

Components:
Nuclear Repulsion  :          635.23879734 Eh           17285.72646 eV
Electronic Energy  :         -659.46457827 Eh          -17944.94348 eV
One Electron Energy:        -1228.60190099 Eh          -33431.95737 eV
Two Electron Energy:          569.13732272 Eh           15487.01390 eV


---------------
SCF CONVERGENCE
---------------

  Last Energy change         ...   -4.3645e-08  Tolerance :   1.0000e-06
  Last MAX-Density change    ...    3.4041e-05  Tolerance :   1.0000e-05
  Last RMS-Density change    ...    1.0784e-06  Tolerance :   1.0000e-06
  Last Orbital Gradient      ...    6.7491e-06  Tolerance :   5.0000e-05
  Last Orbital Rotation      ...    1.9363e-05  Tolerance :   5.0000e-05

             **** THE GBW FILE WAS UPDATED (/home/mattyjones/Software/morphct/tests/output_EZ/donor_polymer/chromophores/input_orca/pair/00008-00029.gbw) ****
             **** DENSITY FILE WAS UPDATED (/home/mattyjones/Software/morphct/tests/output_EZ/donor_polymer/chromophores/input_orca/pair/00008-00029.scfp.tmp) ****
             **** ENERGY FILE WAS UPDATED (/home/mattyjones/Software/morphct/tests/output_EZ/donor_polymer/chromophores/input_orca/pair/00008-00029.en.tmp) ****
----------------
ORBITAL ENERGIES
----------------

  NO   OCC          E(Eh)            E(eV) 
   0   2.0000      -1.556701       -42.3600 
   1   2.0000      -1.555795       -42.3353 
   2   2.0000      -1.397447       -38.0265 
   3   2.0000      -1.392569       -37.8937 
   4   2.0000      -1.289188       -35.0806 
   5   2.0000      -1.285135       -34.9703 
   6   2.0000      -1.197918       -32.5970 
   7   2.0000      -1.182298       -32.1720 
   8   2.0000      -1.110795       -30.2263 
   9   2.0000      -1.107410       -30.1342 
  10   2.0000      -1.040524       -28.3141 
  11   2.0000      -1.030667       -28.0459 
  12   2.0000      -0.970282       -26.4027 
  13   2.0000      -0.965683       -26.2776 
  14   2.0000      -0.912050       -24.8182 
  15   2.0000      -0.903627       -24.5889 
  16   2.0000      -0.866987       -23.5919 
  17   2.0000      -0.848006       -23.0754 
  18   2.0000      -0.832241       -22.6464 
  19   2.0000      -0.831059       -22.6143 
  20   2.0000      -0.774812       -21.0837 
  21   2.0000      -0.774122       -21.0649 
  22   2.0000      -0.737322       -20.0636 
  23   2.0000      -0.722231       -19.6529 
  24   2.0000      -0.688386       -18.7319 
  25   2.0000      -0.681155       -18.5352 
  26   2.0000      -0.671810       -18.2809 
  27   2.0000      -0.668414       -18.1885 
  28   2.0000      -0.653770       -17.7900 
  29   2.0000      -0.650426       -17.6990 
  30   2.0000      -0.612725       -16.6731 
  31   2.0000      -0.609232       -16.5780 
  32   2.0000      -0.591788       -16.1034 
  33   2.0000      -0.583842       -15.8872 
  34   2.0000      -0.576913       -15.6986 
  35   2.0000      -0.575297       -15.6546 
  36   2.0000      -0.572286       -15.5727 
  37   2.0000      -0.568240       -15.4626 
  38   2.0000      -0.554756       -15.0957 
  39   2.0000      -0.547839       -14.9074 
  40   2.0000      -0.533583       -14.5195 
  41   2.0000      -0.531248       -14.4560 
  42   2.0000      -0.521906       -14.2018 
  43   2.0000      -0.514621       -14.0036 
  44   2.0000      -0.508107       -13.8263 
  45   2.0000      -0.503724       -13.7070 
  46   2.0000      -0.502501       -13.6738 
  47   2.0000      -0.496287       -13.5047 
  48   2.0000      -0.489473       -13.3192 
  49   2.0000      -0.488958       -13.3052 
  50   2.0000      -0.474791       -12.9197 
  51   2.0000      -0.471819       -12.8388 
  52   2.0000      -0.470150       -12.7934 
  53   2.0000      -0.464313       -12.6346 
  54   2.0000      -0.460745       -12.5375 
  55   2.0000      -0.441121       -12.0035 
  56   2.0000      -0.440540       -11.9877 
  57   2.0000      -0.433284       -11.7903 
  58   2.0000      -0.357404        -9.7255 
  59   2.0000      -0.357044        -9.7157 
  60   2.0000      -0.305455        -8.3119 
  61   2.0000      -0.304804        -8.2941 
  62   0.0000       0.005808         0.1581 
  63   0.0000       0.007728         0.2103 
  64   0.0000       0.042174         1.1476 
  65   0.0000       0.069311         1.8861 
  66   0.0000       0.072785         1.9806 
  67   0.0000       0.075801         2.0626 
  68   0.0000       0.084172         2.2904 
  69   0.0000       0.087975         2.3939 
  70   0.0000       0.101159         2.7527 
  71   0.0000       0.103566         2.8182 
  72   0.0000       0.107138         2.9154 
  73   0.0000       0.107509         2.9255 
  74   0.0000       0.124442         3.3862 
  75   0.0000       0.124653         3.3920 
  76   0.0000       0.140072         3.8116 
  77   0.0000       0.141050         3.8382 
  78   0.0000       0.157283         4.2799 
  79   0.0000       0.157951         4.2981 
  80   0.0000       0.163795         4.4571 
  81   0.0000       0.165087         4.4922 
  82   0.0000       0.172500         4.6940 
  83   0.0000       0.173587         4.7236 
  84   0.0000       0.201537         5.4841 
  85   0.0000       0.204406         5.5622 
  86   0.0000       0.224082         6.0976 
  87   0.0000       0.228483         6.2173 
  88   0.0000       0.232343         6.3224 
  89   0.0000       0.233500         6.3538 
  90   0.0000       0.234056         6.3690 
  91   0.0000       0.236946         6.4476 
  92   0.0000       0.236953         6.4478 
  93   0.0000       0.238126         6.4797 
  94   0.0000       0.239747         6.5238 
  95   0.0000       0.240158         6.5350 
  96   0.0000       0.242010         6.5854 
  97   0.0000       0.242392         6.5958 
  98   0.0000       0.243269         6.6197 
  99   0.0000       0.243532         6.6268 
 100   0.0000       0.245051         6.6682 
 101   0.0000       0.253840         6.9073 
 102   0.0000       0.257621         7.0102 
 103   0.0000       0.260681         7.0935 
 104   0.0000       0.265904         7.2356 
 105   0.0000       0.267025         7.2661 
 106   0.0000       0.275411         7.4943 
 107   0.0000       0.277659         7.5555 
 108   0.0000       0.300772         8.1844 
 109   0.0000       0.302831         8.2405 
 110   0.0000       0.308873         8.4049 
 111   0.0000       0.310099         8.4382 
 112   0.0000       0.341675         9.2974 
 113   0.0000       0.342818         9.3286 
 114   0.0000       0.353945         9.6313 
 115   0.0000       0.366257         9.9664 
 116   0.0000       0.403526        10.9805 
 117   0.0000       0.412030        11.2119 
 118   0.0000       0.430482        11.7140 
 119   0.0000       0.440015        11.9734 
-------
TIMINGS
-------

Total SCF time: 0 days 0 hours 0 min 0 sec 

Total time                  ....       0.096 sec
Sum of individual times     ....       0.079 sec  ( 82.0%)

Fock matrix formation       ....       0.037 sec  ( 38.7%)
Diagonalization             ....       0.025 sec  ( 25.6%)
Density matrix formation    ....       0.003 sec  (  3.0%)
Population analysis         ....       0.000 sec  (  0.0%)
Initial guess               ....       0.003 sec  (  2.9%)
Orbital Transformation      ....       0.000 sec  (  0.0%)
Orbital Orthonormalization  ....       0.000 sec  (  0.0%)
DIIS solution               ....       0.004 sec  (  4.6%)
SOSCF solution              ....       0.007 sec  (  7.2%)

-------------------------   --------------------
FINAL SINGLE POINT ENERGY       -24.225780931953
-------------------------   --------------------


                            ***************************************
                            *     ORCA property calculations      *
                            ***************************************

                                    ---------------------
                                    Active property flags
                                    ---------------------
   (+) Dipole Moment


------------------------------------------------------------------------------
                       ORCA ELECTRIC PROPERTIES CALCULATION
------------------------------------------------------------------------------

Dipole Moment Calculation                       ... on
Quadrupole Moment Calculation                   ... off
Polarizability Calculation                      ... off
GBWName                                         ... /home/mattyjones/Software/morphct/tests/output_EZ/donor_polymer/chromophores/input_orca/pair/00008-00029.gbw
Electron density file                           ... /home/mattyjones/Software/morphct/tests/output_EZ/donor_polymer/chromophores/input_orca/pair/00008-00029.scfp.tmp
The origin for moment calculation is the CENTER OF MASS  = ( 2.239078,  1.118914 -0.092467)

-------------
DIPOLE MOMENT
-------------
                                X             Y             Z
Electronic contribution:    250.63136     124.50383      -7.13178
Nuclear contribution   :   -132.53976     -64.61834       5.51093
                        -----------------------------------------
Total Dipole Moment    :    118.09160      59.88548      -1.62085
                        -----------------------------------------
Magnitude (a.u.)       :    132.41799
Magnitude (Debye)      :    336.57978


Timings for individual modules:

Sum of individual times         ...        0.126 sec (=   0.002 min)
STO integral calculation        ...        0.019 sec (=   0.000 min)  15.0 %
SCF iterations                  ...        0.107 sec (=   0.002 min)  85.0 %
                             ****ORCA TERMINATED NORMALLY****
TOTAL RUN TIME: 0 days 0 hours 0 minutes 0 seconds 397 msec

