
                                 *****************
                                 * O   R   C   A *
                                 *****************

           --- An Ab Initio, DFT and Semiempirical electronic structure package ---

                  #######################################################
                  #                        -***-                        #
                  #  Department of molecular theory and spectroscopy    #
                  #              Directorship: Frank Neese              #
                  # Max Planck Institute for Chemical Energy Conversion #
                  #                  D-45470 Muelheim/Ruhr              #
                  #                       Germany                       #
                  #                                                     #
                  #                  All rights reserved                #
                  #                        -***-                        #
                  #######################################################


                         Program Version 4.0.1.2 - RELEASE -


 With contributions from (in alphabetic order):
   Daniel Aravena         : Magnetic Properties
   Michael Atanasov       : Ab Initio Ligand Field Theory
   Ute Becker             : Parallelization
   Martin Brehm           : Molecular dynamics
   Dmytro Bykov           : SCF Hessian
   Vijay G. Chilkuri      : MRCI spin determinant printing
   Dipayan Datta          : RHF DLPNO-CCSD density
   Achintya Kumar Dutta   : EOM-CC, STEOM-CC
   Dmitry Ganyushin       : Spin-Orbit,Spin-Spin,Magnetic field MRCI
   Yang Guo               : DLPNO-NEVPT2, CIM, IAO-localization
   Andreas Hansen         : Spin unrestricted coupled pair/coupled cluster methods
   Lee Huntington         : MR-EOM, pCC
   Robert Izsak           : Overlap fitted RIJCOSX, COSX-SCS-MP3, EOM
   Christian Kollmar      : KDIIS, OOCD, Brueckner-CCSD(T), CCSD density
   Simone Kossmann        : Meta GGA functionals, TD-DFT gradient, OOMP2, MP2 Hessian
   Martin Krupicka        : AUTO-CI
   Dagmar Lenk            : GEPOL surface
   Dimitrios Liakos       : Extrapolation schemes; parallel MDCI
   Dimitrios Manganas     : ROCIS; embedding schemes
   Dimitrios Pantazis     : SARC Basis sets
   Taras Petrenko         : DFT Hessian,TD-DFT gradient, ASA, ECA, R-Raman, ABS, FL, XAS/XES, NRVS
   Peter Pinski           : DLPNO-MP2
   Christoph Reimann      : Effective Core Potentials
   Marius Retegan         : Local ZFS, SOC
   Christoph Riplinger    : Optimizer, TS searches, QM/MM, DLPNO-CCSD(T), (RO)-DLPNO pert. Triples
   Tobias Risthaus        : Range-separated hybrids, TD-DFT gradient, RPA, STAB
   Michael Roemelt        : Restricted open shell CIS
   Masaaki Saitow         : Open-shell DLPNO
   Barbara Sandhoefer     : DKH picture change effects
   Kantharuban Sivalingam : CASSCF convergence, NEVPT2, FIC-MRCI
   Georgi Stoychev        : AutoAux
   Boris Wezisla          : Elementary symmetry handling
   Frank Wennmohs         : Technical directorship


 We gratefully acknowledge several colleagues who have allowed us to
 interface, adapt or use parts of their codes:
   Stefan Grimme, W. Hujo, H. Kruse,             : VdW corrections, initial TS optimization,
                  C. Bannwarth                     DFT functionals, gCP, sTDA/sTD-DF
   Ed Valeev                                     : LibInt (2-el integral package), F12 methods
   Garnet Chan, S. Sharma, J. Yang, R. Olivares  : DMRG
   Ulf Ekstrom                                   : XCFun DFT Library
   Mihaly Kallay                                 : mrcc  (arbitrary order and MRCC methods)
   Andreas Klamt, Michael Diedenhofen            : otool_cosmo (COSMO solvation model)
   Jiri Pittner, Ondrej Demel                    : Mk-CCSD
   Frank Weinhold                                : gennbo (NPA and NBO analysis)
   Christopher J. Cramer and Donald G. Truhlar   : smd solvation model


 Your calculation uses the libint2 library for the computation of 2-el integrals
 For citations please refer to: http://libint.valeyev.net

 This ORCA versions uses:
   CBLAS   interface :  Fast vector & matrix operations
   LAPACKE interface :  Fast linear algebra routines
   SCALAPACK package :  Parallel linear algebra routines


leaving
Your calculation utilizes the basis: def2-SVP
   F. Weigend and R. Ahlrichs, Phys. Chem. Chem. Phys. 7, 3297 (2005).

================================================================================
                                        WARNINGS
                       Please study these warnings very carefully!
================================================================================

Warning: TCutStore was < 0. Adjusted to Thresh (uncritical)

WARNING: Direct SCF is incompatible with Method<>HF and Method<>DFT
  ===> : conventional SCF is chosen

WARNING: The NDO methods need Guess=HUECKEL or Guess=HCORE or Guess=MOREAD
  ===> : Guess is set to Hueckel

WARNING: The NDO methods need %rel::SOCType==1
  ===> : %rel::SOCType is set to 1

WARNING: The NDO methods cannot have frozencore=1
  ===> : %method FrozenCore=0 end

INFO   : the flag for use of LIBINT has been found!

================================================================================
                                       INPUT FILE
================================================================================
NAME = /home/mattyjones/Software/morphct/tests/output_EZ/donor_polymer/chromophores/input_orca/pair/00005-00017.inp
|  1> # ================================================================
|  2> # Orca input file made by Matty Jones
|  3> # ================================================================
|  4> ! ZINDO/S 
|  5> ! NOPOP
|  6> ! NOMOPRINT
|  7> * xyz 0   1
|  8>  C  13.38746  7.04318  0.49075
|  9>  C  14.61912  7.68252  0.63959
| 10>  C  15.53448  6.99438  1.49566
| 11>  C  15.02302  5.80567  2.02547
| 12>  S  13.48680  5.67052  1.41542
| 13>  H  14.83649  8.83481  0.78457
| 14>  C  17.02250  7.54218  1.81956
| 15>  C  17.21018  9.12955  2.41018
| 16>  C  18.79485  9.70888  2.66720
| 17>  H  18.69204  10.86624  2.57852
| 18>  H  19.41946  9.35509  1.76461
| 19>  H  16.71022  9.84242  1.65850
| 20>  H  16.66217  9.18024  3.42161
| 21>  H  17.55077  6.84977  2.58991
| 22>  H  17.65298  7.50644  0.83578
| 23>  C  19.59570  9.42886  4.06030
| 24>  C  21.21646  9.94615  4.04471
| 25>  C  21.54487  11.51721  4.55214
| 26>  H  21.69617  12.19405  3.62511
| 27>  H  22.51236  11.51695  5.18929
| 28>  H  20.66406  11.91638  5.18555
| 29>  H  21.81417  9.22615  4.71865
| 30>  H  21.59450  9.85873  2.95844
| 31>  H  19.59951  8.29453  4.28137
| 32>  H  19.06643  9.97552  4.93002
| 33>  C  -12.92484  -9.08266  -2.60352
| 34>  C  -14.05243  -9.63103  -3.21649
| 35>  C  -15.20307  -8.78280  -3.18805
| 36>  C  -14.98295  -7.55847  -2.54940
| 37>  S  -13.39854  -7.58943  -2.06039
| 38>  H  -14.50204  -10.67171  -2.73890
| 39>  C  -16.55105  -9.33378  -3.87573
| 40>  C  -18.12601  -8.96037  -3.48589
| 41>  C  -18.77578  -9.87901  -2.24061
| 42>  H  -18.44731  -10.97745  -2.40029
| 43>  H  -18.32348  -9.49849  -1.24676
| 44>  H  -18.17491  -7.85269  -3.18777
| 45>  H  -18.77185  -9.12535  -4.43219
| 46>  H  -16.52757  -10.51077  -3.84394
| 47>  H  -16.46619  -9.05453  -5.01422
| 48>  C  -20.39970  -9.80606  -2.17873
| 49>  C  -21.03694  -8.39549  -1.51389
| 50>  C  -21.38583  -7.23393  -2.68306
| 51>  H  -20.41269  -6.92206  -3.22405
| 52>  H  -21.86055  -6.31102  -2.17144
| 53>  H  -22.13072  -7.67904  -3.44926
| 54>  H  -22.00548  -8.65184  -0.94703
| 55>  H  -20.25955  -7.96242  -0.78767
| 56>  H  -20.83021  -9.92392  -3.24655
| 57>  H  -20.78407  -10.68921  -1.53293
| 58>  H  12.56248  7.36690  -0.09081
| 59>  H  15.51434  5.13200  2.67997
| 60>  H  -11.96749  -9.52710  -2.50580
| 61>  H  -15.68234  -6.77468  -2.40752
| 62> *
| 63> 
| 64>                          ****END OF INPUT****
================================================================================

                       ****************************
                       * Single Point Calculation *
                       ****************************

---------------------------------
CARTESIAN COORDINATES (ANGSTROEM)
---------------------------------
  C     13.387460    7.043180    0.490750
  C     14.619120    7.682520    0.639590
  C     15.534480    6.994380    1.495660
  C     15.023020    5.805670    2.025470
  S     13.486800    5.670520    1.415420
  H     14.836490    8.834810    0.784570
  C     17.022500    7.542180    1.819560
  C     17.210180    9.129550    2.410180
  C     18.794850    9.708880    2.667200
  H     18.692040   10.866240    2.578520
  H     19.419460    9.355090    1.764610
  H     16.710220    9.842420    1.658500
  H     16.662170    9.180240    3.421610
  H     17.550770    6.849770    2.589910
  H     17.652980    7.506440    0.835780
  C     19.595700    9.428860    4.060300
  C     21.216460    9.946150    4.044710
  C     21.544870   11.517210    4.552140
  H     21.696170   12.194050    3.625110
  H     22.512360   11.516950    5.189290
  H     20.664060   11.916380    5.185550
  H     21.814170    9.226150    4.718650
  H     21.594500    9.858730    2.958440
  H     19.599510    8.294530    4.281370
  H     19.066430    9.975520    4.930020
  C    -12.924840   -9.082660   -2.603520
  C    -14.052430   -9.631030   -3.216490
  C    -15.203070   -8.782800   -3.188050
  C    -14.982950   -7.558470   -2.549400
  S    -13.398540   -7.589430   -2.060390
  H    -14.502040  -10.671710   -2.738900
  C    -16.551050   -9.333780   -3.875730
  C    -18.126010   -8.960370   -3.485890
  C    -18.775780   -9.879010   -2.240610
  H    -18.447310  -10.977450   -2.400290
  H    -18.323480   -9.498490   -1.246760
  H    -18.174910   -7.852690   -3.187770
  H    -18.771850   -9.125350   -4.432190
  H    -16.527570  -10.510770   -3.843940
  H    -16.466190   -9.054530   -5.014220
  C    -20.399700   -9.806060   -2.178730
  C    -21.036940   -8.395490   -1.513890
  C    -21.385830   -7.233930   -2.683060
  H    -20.412690   -6.922060   -3.224050
  H    -21.860550   -6.311020   -2.171440
  H    -22.130720   -7.679040   -3.449260
  H    -22.005480   -8.651840   -0.947030
  H    -20.259550   -7.962420   -0.787670
  H    -20.830210   -9.923920   -3.246550
  H    -20.784070  -10.689210   -1.532930
  H     12.562480    7.366900   -0.090810
  H     15.514340    5.132000    2.679970
  H    -11.967490   -9.527100   -2.505800
  H    -15.682340   -6.774680   -2.407520

----------------------------
CARTESIAN COORDINATES (A.U.)
----------------------------
  NO LB      ZA    FRAG     MASS         X           Y           Z
   0 C     4.0000    0    12.011   25.298633   13.309681    0.927383
   1 C     4.0000    0    12.011   27.626133   14.517859    1.208650
   2 C     4.0000    0    12.011   29.355913   13.217463    2.826388
   3 C     4.0000    0    12.011   28.389394   10.971126    3.827584
   4 S     6.0000    0    32.060   25.486358   10.715730    2.674756
   5 H     1.0000    0     1.008   28.036903   16.695371    1.482622
   6 C     4.0000    0    12.011   32.167863   14.252655    3.438470
   7 C     4.0000    0    12.011   32.522527   17.252349    4.554580
   8 C     4.0000    0    12.011   35.517119   18.347124    5.040278
   9 H     1.0000    0     1.008   35.322836   20.534218    4.872697
  10 H     1.0000    0     1.008   36.697461   17.678558    3.334630
  11 H     1.0000    0     1.008   31.577739   18.599478    3.134111
  12 H     1.0000    0     1.008   31.486938   17.348139    6.465906
  13 H     1.0000    0     1.008   33.166149   12.944189    4.894221
  14 H     1.0000    0     1.008   33.359298   14.185116    1.579395
  15 C     4.0000    0    12.011   37.030506   17.817963    7.672855
  16 C     4.0000    0    12.011   40.093299   18.795500    7.643394
  17 C     4.0000    0    12.011   40.713904   21.764373    8.602298
  18 H     1.0000    0     1.008   40.999819   23.043415    6.850465
  19 H     1.0000    0     1.008   42.542195   21.763881    9.806337
  20 H     1.0000    0     1.008   39.049414   22.518695    9.799269
  21 H     1.0000    0     1.008   41.222807   17.434897    8.916956
  22 H     1.0000    0     1.008   40.807691   18.630300    5.590641
  23 H     1.0000    0     1.008   37.037706   15.674390    8.090617
  24 H     1.0000    0     1.008   36.030331   18.851001    9.316388
  25 C     4.0000    0    12.011  -24.424408  -17.163740   -4.919940
  26 C     4.0000    0    12.011  -26.555244  -18.200009   -6.078285
  27 C     4.0000    0    12.011  -28.729639  -16.597087   -6.024541
  28 C     4.0000    0    12.011  -28.313672  -14.283438   -4.817668
  29 S     6.0000    0    32.060  -25.319571  -14.341944   -3.893573
  30 H     1.0000    0     1.008  -27.404884  -20.166609   -5.175771
  31 C     4.0000    0    12.011  -31.276952  -17.638288   -7.324068
  32 C     4.0000    0    12.011  -34.253195  -16.932645   -6.587377
  33 C     4.0000    0    12.011  -35.481082  -18.668623   -4.234139
  34 H     1.0000    0     1.008  -34.860364  -20.744374   -4.535891
  35 H     1.0000    0     1.008  -34.626359  -17.949545   -2.356035
  36 H     1.0000    0     1.008  -34.345602  -14.839434   -6.024012
  37 H     1.0000    0     1.008  -35.473656  -17.244412   -8.375625
  38 H     1.0000    0     1.008  -31.232581  -19.862477   -7.263994
  39 H     1.0000    0     1.008  -31.116590  -17.110582   -9.475503
  40 C     4.0000    0    12.011  -38.549846  -18.530768   -4.117203
  41 C     4.0000    0    12.011  -39.754055  -15.865177   -2.860837
  42 C     4.0000    0    12.011  -40.413362  -13.670147   -5.070249
  43 H     1.0000    0     1.008  -38.574394  -13.080798   -6.092572
  44 H     1.0000    0     1.008  -41.310453  -11.926099   -4.103427
  45 H     1.0000    0     1.008  -41.821000  -14.511283   -6.518157
  46 H     1.0000    0     1.008  -41.584331  -16.349608   -1.789627
  47 H     1.0000    0     1.008  -38.285001  -15.046793   -1.488481
  48 H     1.0000    0     1.008  -39.363392  -18.753491   -6.135090
  49 H     1.0000    0     1.008  -39.276200  -20.199679   -2.896818
  50 H     1.0000    0     1.008   23.739647   13.921423   -0.171606
  51 H     1.0000    0     1.008   29.317854    9.698075    5.064409
  52 H     1.0000    0     1.008  -22.615279  -18.003610   -4.735276
  53 H     1.0000    0     1.008  -29.635328  -12.802290   -4.549553

--------------------------------
INTERNAL COORDINATES (ANGSTROEM)
--------------------------------
 C      0   0   0     0.000000000000     0.00000000     0.00000000
 C      1   0   0     1.395670210616     0.00000000     0.00000000
 C      2   1   0     1.429781953341   114.10154847     0.00000000
 C      3   2   1     1.398328084464   113.69272100     0.00000000
 S      1   2   3     1.658034535256   105.47963334     0.00000000
 H      2   1   3     1.181541857659   128.47587837   221.86427892
 C      3   2   1     1.618394133207   123.06273388   180.00481464
 C      7   3   2     1.704053779580   119.07394573    53.52746997
 C      8   7   3     1.706710736534   118.07692270   183.08463226
 H      9   8   7     1.165296618076   104.10812323   154.81580721
 H      9   8   7     1.153244867450   106.31310625    41.97023400
 H      8   7   3     1.150289729112   107.63394072   304.17282350
 H      8   7   3     1.151466491523   107.03981364    62.23417147
 H      7   3   2     1.162729514333   110.41180667   176.39503659
 H      7   3   2     1.169019018836   108.48795535   293.49506056
 C      9   8   7     1.631103777477   121.75066498   274.39472670
 C     16   9   8     1.701380313099   114.06034462   173.70310623
 C     17  16   9     1.683320485410   117.83031010    90.19071524
 H     18  17  16     1.157751569422   109.25369499   259.25651251
 H     18  17  16     1.158445980700   109.17922403   139.70934746
 H     18  17  16     1.156015213178   109.80311033    19.55759154
 H     17  16   9     1.153192250971   107.37139900   211.99571327
 H     17  16   9     1.153489926657   107.32507367   329.59396182
 H     16   9   8     1.155677727526   109.48139254    53.50424646
 H     16   9   8     1.155585032310   109.67680348   294.22416809
 C      5   1   2    30.518566911400   105.95723748   182.29791533
 C     26   5   1     1.395672270234   161.25723370    42.32792862
 C     27  26   5     1.429781583355   114.10148824   266.02002017
 C     28  27  26     1.398324206255   113.69324929     0.00000000
 S     26   5   1     1.658046356348    76.62935137   303.51190653
 H     27  26   5     1.230144797412   117.20462518   147.57350194
 C     28  27  26     1.610444914674   117.52550677   179.87842069
 C     32  28  27     1.664905179072   127.95806005   151.54614206
 C     33  32  28     1.678339292545   114.65840001   274.97413129
 H     34  33  32     1.157566705162   107.88963026   317.90027637
 H     34  33  32     1.156334113870   107.82792029    75.08414119
 H     33  32  28     1.148138374413   108.50987450    36.55832095
 H     33  32  28     1.157502222892   107.72339916   154.45856358
 H     32  28  27     1.177653333796   108.28361201    26.52276167
 H     32  28  27     1.175304752905   105.77810296   274.17165552
 C     34  33  32     1.626735074713   112.96440025   196.92861438
 C     41  34  33     1.684575545382   115.47946806   282.99324312
 C     42  41  34     1.684608071511   112.44492653    93.23081317
 H     43  42  41     1.156258853631   109.65743749   297.77571027
 H     43  42  41     1.157098513913   109.15095034   177.58278336
 H     43  42  41     1.157603759583   109.11773311    57.84102601
 H     42  41  34     1.151136531303   109.03531238   213.89419571
 H     42  41  34     1.148599288438   108.01226681   333.41189303
 H     41  34  33     1.157354479881   109.37020374    44.99893221
 H     41  34  33     1.159634364530   108.53694046   162.88949128
 H      1   2   3     1.059999373773   127.26018918   180.00005519
 H      4   3   2     1.059998519480   127.20563147   179.99980198
 H     26   5   1     1.059997704950    53.76674667   142.48390595
 H     29  28  27     1.060001448395   127.20617366   180.00032203

---------------------------
INTERNAL COORDINATES (A.U.)
---------------------------
 C      0   0   0     0.000000000000     0.00000000     0.00000000
 C      1   0   0     2.637434471336     0.00000000     0.00000000
 C      2   1   0     2.701896323038   114.10154847     0.00000000
 C      3   2   1     2.642457125007   113.69272100     0.00000000
 S      1   2   3     3.133231192216   105.47963334     0.00000000
 H      2   1   3     2.232790526740   128.47587837   221.86427892
 C      3   2   1     3.058321688507   123.06273388   180.00481464
 C      7   3   2     3.220194960879   119.07394573    53.52746997
 C      8   7   3     3.225215881872   118.07692270   183.08463226
 H      9   8   7     2.202091472949   104.10812323   154.81580721
 H      9   8   7     2.179316964831   106.31310625    41.97023400
 H      8   7   3     2.173732562684   107.63394072   304.17282350
 H      8   7   3     2.175956321365   107.03981364    62.23417147
 H      7   3   2     2.197240349916   110.41180667   176.39503659
 H      7   3   2     2.209125790945   108.48795535   293.49506056
 C      9   8   7     3.082339435436   121.75066498   274.39472670
 C     16   9   8     3.215142841402   114.06034462   173.70310623
 C     17  16   9     3.181014713044   117.83031010    90.19071524
 H     18  17  16     2.187833397326   109.25369499   259.25651251
 H     18  17  16     2.189145644465   109.17922403   139.70934746
 H     18  17  16     2.184552159554   109.80311033    19.55759154
 H     17  16   9     2.179217534096   107.37139900   211.99571327
 H     17  16   9     2.179780059619   107.32507367   329.59396182
 H     16   9   8     2.183914404097   109.48139254    53.50424646
 H     16   9   8     2.183739235525   109.67680348   294.22416809
 C      5   1   2    57.671733462297   105.95723748   182.29791533
 C     26   5   1     2.637438363450   161.25723370    42.32792862
 C     27  26   5     2.701895623865   114.10148824   266.02002017
 C     28  27  26     2.642449796256   113.69324929     0.00000000
 S     26   5   1     3.133253530844    76.62935137   303.51190653
 H     27  26   5     2.324636772177   117.20462518   147.57350194
 C     28  27  26     3.043299842500   117.52550677   179.87842069
 C     32  28  27     3.146214827393   127.95806005   151.54614206
 C     33  32  28     3.171601622709   114.65840001   274.97413129
 H     34  33  32     2.187484054502   107.88963026   317.90027637
 H     34  33  32     2.185154794525   107.82792029    75.08414119
 H     33  32  28     2.169667091486   108.50987450    36.55832095
 H     33  32  28     2.187362200671   107.72339916   154.45856358
 H     32  28  27     2.225442281573   108.28361201    26.52276167
 H     32  28  27     2.221004106886   105.77810296   274.17165552
 C     34  33  32     3.074083783651   112.96440025   196.92861438
 C     41  34  33     3.183386432674   115.47946806   282.99324312
 C     42  41  34     3.183447898149   112.44492653    93.23081317
 H     43  42  41     2.185012573284   109.65743749   297.77571027
 H     43  42  41     2.186599301263   109.15095034   177.58278336
 H     43  42  41     2.187554077209   109.11773311    57.84102601
 H     42  41  34     2.175332786914   109.03531238   213.89419571
 H     42  41  34     2.170538092764   108.01226681   333.41189303
 H     41  34  33     2.187083006841   109.37020374    44.99893221
 H     41  34  33     2.191391364446   108.53694046   162.88949128
 H      1   2   3     2.003108518560   127.26018918   180.00005519
 H      4   3   2     2.003106904179   127.20563147   179.99980198
 H     26   5   1     2.003105364941    53.76674667   142.48390595
 H     29  28  27     2.003112439027   127.20617366   180.00032203

----------------------------
SLATER BASIS SET DIM= 120
----------------------------
  0 C     2 shells
 l=0 nsto= 1
    2       1.625000000000        1.000000000000
 l=1 nsto= 1
    2       1.625000000000        1.000000000000
  1 C     2 shells
 l=0 nsto= 1
    2       1.625000000000        1.000000000000
 l=1 nsto= 1
    2       1.625000000000        1.000000000000
  2 C     2 shells
 l=0 nsto= 1
    2       1.625000000000        1.000000000000
 l=1 nsto= 1
    2       1.625000000000        1.000000000000
  3 C     2 shells
 l=0 nsto= 1
    2       1.625000000000        1.000000000000
 l=1 nsto= 1
    2       1.625000000000        1.000000000000
  4 S     2 shells
 l=0 nsto= 1
    3       1.925000000000        1.000000000000
 l=1 nsto= 1
    3       1.925000000000        1.000000000000
  5 H     1 shells
 l=0 nsto= 1
    1       1.200000000000        1.000000000000
  6 C     2 shells
 l=0 nsto= 1
    2       1.625000000000        1.000000000000
 l=1 nsto= 1
    2       1.625000000000        1.000000000000
  7 C     2 shells
 l=0 nsto= 1
    2       1.625000000000        1.000000000000
 l=1 nsto= 1
    2       1.625000000000        1.000000000000
  8 C     2 shells
 l=0 nsto= 1
    2       1.625000000000        1.000000000000
 l=1 nsto= 1
    2       1.625000000000        1.000000000000
  9 H     1 shells
 l=0 nsto= 1
    1       1.200000000000        1.000000000000
 10 H     1 shells
 l=0 nsto= 1
    1       1.200000000000        1.000000000000
 11 H     1 shells
 l=0 nsto= 1
    1       1.200000000000        1.000000000000
 12 H     1 shells
 l=0 nsto= 1
    1       1.200000000000        1.000000000000
 13 H     1 shells
 l=0 nsto= 1
    1       1.200000000000        1.000000000000
 14 H     1 shells
 l=0 nsto= 1
    1       1.200000000000        1.000000000000
 15 C     2 shells
 l=0 nsto= 1
    2       1.625000000000        1.000000000000
 l=1 nsto= 1
    2       1.625000000000        1.000000000000
 16 C     2 shells
 l=0 nsto= 1
    2       1.625000000000        1.000000000000
 l=1 nsto= 1
    2       1.625000000000        1.000000000000
 17 C     2 shells
 l=0 nsto= 1
    2       1.625000000000        1.000000000000
 l=1 nsto= 1
    2       1.625000000000        1.000000000000
 18 H     1 shells
 l=0 nsto= 1
    1       1.200000000000        1.000000000000
 19 H     1 shells
 l=0 nsto= 1
    1       1.200000000000        1.000000000000
 20 H     1 shells
 l=0 nsto= 1
    1       1.200000000000        1.000000000000
 21 H     1 shells
 l=0 nsto= 1
    1       1.200000000000        1.000000000000
 22 H     1 shells
 l=0 nsto= 1
    1       1.200000000000        1.000000000000
 23 H     1 shells
 l=0 nsto= 1
    1       1.200000000000        1.000000000000
 24 H     1 shells
 l=0 nsto= 1
    1       1.200000000000        1.000000000000
 25 C     2 shells
 l=0 nsto= 1
    2       1.625000000000        1.000000000000
 l=1 nsto= 1
    2       1.625000000000        1.000000000000
 26 C     2 shells
 l=0 nsto= 1
    2       1.625000000000        1.000000000000
 l=1 nsto= 1
    2       1.625000000000        1.000000000000
 27 C     2 shells
 l=0 nsto= 1
    2       1.625000000000        1.000000000000
 l=1 nsto= 1
    2       1.625000000000        1.000000000000
 28 C     2 shells
 l=0 nsto= 1
    2       1.625000000000        1.000000000000
 l=1 nsto= 1
    2       1.625000000000        1.000000000000
 29 S     2 shells
 l=0 nsto= 1
    3       1.925000000000        1.000000000000
 l=1 nsto= 1
    3       1.925000000000        1.000000000000
 30 H     1 shells
 l=0 nsto= 1
    1       1.200000000000        1.000000000000
 31 C     2 shells
 l=0 nsto= 1
    2       1.625000000000        1.000000000000
 l=1 nsto= 1
    2       1.625000000000        1.000000000000
 32 C     2 shells
 l=0 nsto= 1
    2       1.625000000000        1.000000000000
 l=1 nsto= 1
    2       1.625000000000        1.000000000000
 33 C     2 shells
 l=0 nsto= 1
    2       1.625000000000        1.000000000000
 l=1 nsto= 1
    2       1.625000000000        1.000000000000
 34 H     1 shells
 l=0 nsto= 1
    1       1.200000000000        1.000000000000
 35 H     1 shells
 l=0 nsto= 1
    1       1.200000000000        1.000000000000
 36 H     1 shells
 l=0 nsto= 1
    1       1.200000000000        1.000000000000
 37 H     1 shells
 l=0 nsto= 1
    1       1.200000000000        1.000000000000
 38 H     1 shells
 l=0 nsto= 1
    1       1.200000000000        1.000000000000
 39 H     1 shells
 l=0 nsto= 1
    1       1.200000000000        1.000000000000
 40 C     2 shells
 l=0 nsto= 1
    2       1.625000000000        1.000000000000
 l=1 nsto= 1
    2       1.625000000000        1.000000000000
 41 C     2 shells
 l=0 nsto= 1
    2       1.625000000000        1.000000000000
 l=1 nsto= 1
    2       1.625000000000        1.000000000000
 42 C     2 shells
 l=0 nsto= 1
    2       1.625000000000        1.000000000000
 l=1 nsto= 1
    2       1.625000000000        1.000000000000
 43 H     1 shells
 l=0 nsto= 1
    1       1.200000000000        1.000000000000
 44 H     1 shells
 l=0 nsto= 1
    1       1.200000000000        1.000000000000
 45 H     1 shells
 l=0 nsto= 1
    1       1.200000000000        1.000000000000
 46 H     1 shells
 l=0 nsto= 1
    1       1.200000000000        1.000000000000
 47 H     1 shells
 l=0 nsto= 1
    1       1.200000000000        1.000000000000
 48 H     1 shells
 l=0 nsto= 1
    1       1.200000000000        1.000000000000
 49 H     1 shells
 l=0 nsto= 1
    1       1.200000000000        1.000000000000
 50 H     1 shells
 l=0 nsto= 1
    1       1.200000000000        1.000000000000
 51 H     1 shells
 l=0 nsto= 1
    1       1.200000000000        1.000000000000
 52 H     1 shells
 l=0 nsto= 1
    1       1.200000000000        1.000000000000
 53 H     1 shells
 l=0 nsto= 1
    1       1.200000000000        1.000000000000
------------------------------------------------------------------------------
                           ORCA NDO INTEGRAL CALCULATION
------------------------------------------------------------------------------

--------------
NDO PARAMETERS
--------------

Gamma integral treatment              ... Mataga-Nishimoto
Nuclear repulsuion treatment          ... Direct (ZA*ZB/RAB)
Interaction factors:
s-s (sigma) =    1.0000
s-p (sigma) =    1.0000
s-d (sigma) =    1.0000
p-p (sigma) =    1.2670  p-p(pi) =    0.5850
p-d (sigma) =    1.0000  p-d(pi) =    1.0000
d-d (sigma) =    1.0000  d-d(pi) =    1.0000 d-d (delta) =    1.0000

fGamma parameter for Mataga-Nishimoto gamma integrals:    1.2000

--------------------------
Parameters for Element H :
--------------------------
 One-electron parameters (in eV)
  U(s)  =   -13.060000 Beta(s) =    12.000000 Neff(s) =     1.000000
 One-center electron repulsion parameters (in eV)
  G(s,s)=    12.850000
--------------------------
Parameters for Element C :
--------------------------
 One-electron parameters (in eV)
  U(s)  =   -50.870766 Beta(s) =    17.000000 Neff(s) =     2.000000
  U(p)  =   -41.599980 Beta(p) =    17.000000 Neff(p) =     2.000000 
 One-center electron repulsion parameters (in eV)
  G(s,s)=    11.110000
  G(s,p)=    11.110000 G(p,p)  =    11.110000
 Slater-Condon parameters (in eV)
 F2(p,p)=     4.5098 G1(s,p)=    6.8977
--------------------------
Parameters for Element S :
--------------------------
 One-electron parameters (in eV)
  U(s)  =   -69.509597 Beta(s) =    15.000000 Neff(s) =     2.000000
  U(p)  =   -60.725746 Beta(p) =    15.000000 Neff(p) =     4.000000 
 One-center electron repulsion parameters (in eV)
  G(s,s)=    10.090000
  G(s,p)=    10.090000 G(p,p)  =    10.090000
 Slater-Condon parameters (in eV)
 F2(p,p)=     4.5377 G1(s,p)=    3.0756

 Number of atoms                    ....   54
 Number of basis functions          ....  120

 Overlap integrals                  .... done
 One electron matrix                .... done
 Nuclear repulsion                  .... done
 Integral list                      .... done
 Electron-electron repulsion        .... done
-------------------------------------------------------------------------------
                                 ORCA SCF
-------------------------------------------------------------------------------

------------
SCF SETTINGS
------------
Hamiltonian:
 ZDO-Hamiltonian        Method          .... INDO


General Settings:
 Integral files         IntName         .... /home/mattyjones/Software/morphct/tests/output_EZ/donor_polymer/chromophores/input_orca/pair/00005-00017
 Hartree-Fock type      HFTyp           .... RHF
 Total Charge           Charge          ....    0
 Multiplicity           Mult            ....    1
 Number of Electrons    NEL             ....  124
 Basis Dimension        Dim             ....  120
 Nuclear Repulsion      ENuc            ....    638.5109581261 Eh

Convergence Acceleration:
 DIIS                   CNVDIIS         .... on
   Start iteration      DIISMaxIt       ....    12
   Startup error        DIISStart       ....  0.200000
   # of expansion vecs  DIISMaxEq       ....     5
   Bias factor          DIISBfac        ....   1.050
   Max. coefficient     DIISMaxC        ....  10.000
 Newton-Raphson         CNVNR           .... off
 SOSCF                  CNVSOSCF        .... on
   Start iteration      SOSCFMaxIt      ....   150
   Startup grad/error   SOSCFStart      ....  0.003300
 Level Shifting         CNVShift        .... on
   Level shift para.    LevelShift      ....    0.2500
   Turn off err/grad.   ShiftErr        ....    0.0010
 Zerner damping         CNVZerner       .... off
 Static damping         CNVDamp         .... on
   Fraction old density DampFac         ....    0.7000
   Max. Damping (<1)    DampMax         ....    0.9800
   Min. Damping (>=0)   DampMin         ....    0.0000
   Turn off err/grad.   DampErr         ....    0.1000
 Fernandez-Rico         CNVRico         .... off

SCF Procedure:
 Maximum # iterations   MaxIter         ....   125
 SCF integral mode      SCFMode         .... Conventional
 Integral Buffer length BufferLength    .... 1048576
 Integral index format  IndFormat       ....     0
 Integral value format  ValFormat       ....     0
 Integral Storage       Thresh          ....  1.000e-08 Eh

Convergence Tolerance:
 Convergence Check Mode ConvCheckMode   .... Total+1el-Energy
 Convergence forced     ConvForced      .... 0
 Energy Change          TolE            ....  1.000e-06 Eh
 1-El. energy change                    ....  1.000e-03 Eh
 Orbital Gradient       TolG            ....  5.000e-05
 Orbital Rotation angle TolX            ....  5.000e-05
 DIIS Error             TolErr          ....  1.000e-06


Diagonalization of the overlap matrix:
Smallest eigenvalue                        ... 1.677e-01
Time for diagonalization                   ...    0.003 sec
Threshold for overlap eigenvalues          ... 1.000e-08
Number of eigenvalues below threshold      ... 0
Time for construction of square roots      ...    0.000 sec
Total time needed                          ...    0.003 sec

-------------------------------
INITIAL GUESS: EXTENDED HUECKEL
-------------------------------
EHT matrix was read from disk
EHT matrix was diagonalized
Initial density was built
                      ------------------
                      INITIAL GUESS DONE
                      ------------------

 InCore treatment chosen:
   Memory dedicated               ...    1024 MB
   Memory needed                  ...      0 MB
   Number of tiny    integrals    ...       0
   Number of small   integrals    ...       0
   Number of regular integrals    ...    7392

--------------
SCF ITERATIONS
--------------
ITER       Energy         Delta-E        Max-DP      RMS-DP      [F,P]     Damp
  0    -22.0740184798   0.000000000000 0.05091195  0.00156066  0.1111893 0.7000
  1    -22.1213687280  -0.047350248166 0.04936123  0.00147731  0.0758572 0.7000
                               ***Turning on DIIS***
  2    -22.1561765530  -0.034807825018 0.12854831  0.00379233  0.0466769 0.0000
  3    -22.2492065262  -0.093029973150 0.01998988  0.00078641  0.0252994 0.0000
  4    -22.2286606267   0.020545899453 0.01399936  0.00056421  0.0095493 0.0000
  5    -22.2473688189  -0.018708192219 0.00968946  0.00038743  0.0057417 0.0000
  6    -22.2492950348  -0.001926215848 0.00759565  0.00028270  0.0031040 0.0000
  7    -22.2465242293   0.002770805516 0.00495168  0.00016961  0.0017590 0.0000
                      *** Initiating the SOSCF procedure ***
                           *** Shutting down DIIS ***
                      *** Re-Reading the Fockian *** 
                      *** Removing any level shift *** 
ITER      Energy       Delta-E        Grad      Rot      Max-DP    RMS-DP
  8    -22.24578343   0.0007407965  0.002080  0.002080  0.002865  0.000092
  9    -22.24479430   0.0009891376  0.000607  0.001821  0.001442  0.000044
 10    -22.24480119  -0.0000068928  0.000288  0.002061  0.001862  0.000053
 11    -22.24480403  -0.0000028381  0.000044  0.000111  0.000239  0.000006
                 **** Energy Check signals convergence ****
              ***Rediagonalizing the Fockian in SOSCF/NRSCF***

               *****************************************************
               *                     SUCCESS                       *
               *           SCF CONVERGED AFTER  12 CYCLES          *
               *****************************************************


----------------
TOTAL SCF ENERGY
----------------

Total Energy       :          -22.24480411 Eh            -605.31189 eV

Components:
Nuclear Repulsion  :          638.51095813 Eh           17374.76649 eV
Electronic Energy  :         -660.75576224 Eh          -17980.07838 eV
One Electron Energy:        -1231.20840245 Eh          -33502.88388 eV
Two Electron Energy:          570.45264021 Eh           15522.80550 eV


---------------
SCF CONVERGENCE
---------------

  Last Energy change         ...   -8.4158e-08  Tolerance :   1.0000e-06
  Last MAX-Density change    ...    7.8785e-05  Tolerance :   1.0000e-05
  Last RMS-Density change    ...    1.9750e-06  Tolerance :   1.0000e-06
  Last Orbital Gradient      ...    1.5371e-05  Tolerance :   5.0000e-05
  Last Orbital Rotation      ...    3.9101e-05  Tolerance :   5.0000e-05

             **** THE GBW FILE WAS UPDATED (/home/mattyjones/Software/morphct/tests/output_EZ/donor_polymer/chromophores/input_orca/pair/00005-00017.gbw) ****
             **** DENSITY FILE WAS UPDATED (/home/mattyjones/Software/morphct/tests/output_EZ/donor_polymer/chromophores/input_orca/pair/00005-00017.scfp.tmp) ****
             **** ENERGY FILE WAS UPDATED (/home/mattyjones/Software/morphct/tests/output_EZ/donor_polymer/chromophores/input_orca/pair/00005-00017.en.tmp) ****
----------------
ORBITAL ENERGIES
----------------

  NO   OCC          E(Eh)            E(eV) 
   0   2.0000      -1.564815       -42.5808 
   1   2.0000      -1.559770       -42.4435 
   2   2.0000      -1.415928       -38.5294 
   3   2.0000      -1.391494       -37.8645 
   4   2.0000      -1.291483       -35.1430 
   5   2.0000      -1.290172       -35.1074 
   6   2.0000      -1.179078       -32.0843 
   7   2.0000      -1.174906       -31.9708 
   8   2.0000      -1.111033       -30.2327 
   9   2.0000      -1.104291       -30.0493 
  10   2.0000      -1.062613       -28.9152 
  11   2.0000      -1.040904       -28.3244 
  12   2.0000      -0.960603       -26.1393 
  13   2.0000      -0.958169       -26.0731 
  14   2.0000      -0.900172       -24.4949 
  15   2.0000      -0.881316       -23.9818 
  16   2.0000      -0.862221       -23.4622 
  17   2.0000      -0.861888       -23.4532 
  18   2.0000      -0.831729       -22.6325 
  19   2.0000      -0.823572       -22.4105 
  20   2.0000      -0.777086       -21.1456 
  21   2.0000      -0.768759       -20.9190 
  22   2.0000      -0.736390       -20.0382 
  23   2.0000      -0.724385       -19.7115 
  24   2.0000      -0.691812       -18.8252 
  25   2.0000      -0.681620       -18.5478 
  26   2.0000      -0.676154       -18.3991 
  27   2.0000      -0.668956       -18.2032 
  28   2.0000      -0.652906       -17.7665 
  29   2.0000      -0.650682       -17.7060 
  30   2.0000      -0.616453       -16.7745 
  31   2.0000      -0.614564       -16.7231 
  32   2.0000      -0.583533       -15.8787 
  33   2.0000      -0.582695       -15.8559 
  34   2.0000      -0.578669       -15.7464 
  35   2.0000      -0.577629       -15.7181 
  36   2.0000      -0.571609       -15.5543 
  37   2.0000      -0.571411       -15.5489 
  38   2.0000      -0.558526       -15.1983 
  39   2.0000      -0.555981       -15.1290 
  40   2.0000      -0.532826       -14.4989 
  41   2.0000      -0.527759       -14.3610 
  42   2.0000      -0.523246       -14.2383 
  43   2.0000      -0.517362       -14.0781 
  44   2.0000      -0.512227       -13.9384 
  45   2.0000      -0.503324       -13.6962 
  46   2.0000      -0.494584       -13.4583 
  47   2.0000      -0.493903       -13.4398 
  48   2.0000      -0.486440       -13.2367 
  49   2.0000      -0.481790       -13.1102 
  50   2.0000      -0.477289       -12.9877 
  51   2.0000      -0.473292       -12.8789 
  52   2.0000      -0.469637       -12.7795 
  53   2.0000      -0.466664       -12.6986 
  54   2.0000      -0.459138       -12.4938 
  55   2.0000      -0.456060       -12.4100 
  56   2.0000      -0.437064       -11.8931 
  57   2.0000      -0.435794       -11.8585 
  58   2.0000      -0.350016        -9.5244 
  59   2.0000      -0.338214        -9.2033 
  60   2.0000      -0.304858        -8.2956 
  61   2.0000      -0.304119        -8.2755 
  62   0.0000      -0.004980        -0.1355 
  63   0.0000       0.002746         0.0747 
  64   0.0000       0.053450         1.4544 
  65   0.0000       0.058384         1.5887 
  66   0.0000       0.073279         1.9940 
  67   0.0000       0.078341         2.1318 
  68   0.0000       0.089170         2.4265 
  69   0.0000       0.092734         2.5234 
  70   0.0000       0.103540         2.8175 
  71   0.0000       0.104741         2.8501 
  72   0.0000       0.109021         2.9666 
  73   0.0000       0.111574         3.0361 
  74   0.0000       0.125772         3.4224 
  75   0.0000       0.127595         3.4720 
  76   0.0000       0.143807         3.9132 
  77   0.0000       0.144477         3.9314 
  78   0.0000       0.155264         4.2250 
  79   0.0000       0.159855         4.3499 
  80   0.0000       0.168320         4.5802 
  81   0.0000       0.169636         4.6160 
  82   0.0000       0.177977         4.8430 
  83   0.0000       0.184561         5.0222 
  84   0.0000       0.199620         5.4319 
  85   0.0000       0.200309         5.4507 
  86   0.0000       0.231140         6.2896 
  87   0.0000       0.234216         6.3733 
  88   0.0000       0.234721         6.3871 
  89   0.0000       0.235159         6.3990 
  90   0.0000       0.236212         6.4276 
  91   0.0000       0.237094         6.4517 
  92   0.0000       0.238334         6.4854 
  93   0.0000       0.239437         6.5154 
  94   0.0000       0.241611         6.5746 
  95   0.0000       0.242689         6.6039 
  96   0.0000       0.242996         6.6123 
  97   0.0000       0.243859         6.6357 
  98   0.0000       0.244896         6.6640 
  99   0.0000       0.246751         6.7144 
 100   0.0000       0.251132         6.8336 
 101   0.0000       0.256648         6.9837 
 102   0.0000       0.260723         7.0946 
 103   0.0000       0.262335         7.1385 
 104   0.0000       0.264649         7.2015 
 105   0.0000       0.265424         7.2226 
 106   0.0000       0.277331         7.5466 
 107   0.0000       0.281003         7.6465 
 108   0.0000       0.303088         8.2474 
 109   0.0000       0.304602         8.2887 
 110   0.0000       0.308804         8.4030 
 111   0.0000       0.309090         8.4108 
 112   0.0000       0.327272         8.9055 
 113   0.0000       0.337431         9.1820 
 114   0.0000       0.347266         9.4496 
 115   0.0000       0.353031         9.6065 
 116   0.0000       0.411623        11.2008 
 117   0.0000       0.417876        11.3710 
 118   0.0000       0.431318        11.7368 
 119   0.0000       0.434277        11.8173 
-------
TIMINGS
-------

Total SCF time: 0 days 0 hours 0 min 0 sec 

Total time                  ....       0.133 sec
Sum of individual times     ....       0.112 sec  ( 84.3%)

Fock matrix formation       ....       0.044 sec  ( 32.7%)
Diagonalization             ....       0.029 sec  ( 21.8%)
Density matrix formation    ....       0.003 sec  (  2.4%)
Population analysis         ....       0.000 sec  (  0.0%)
Initial guess               ....       0.003 sec  (  2.2%)
Orbital Transformation      ....       0.000 sec  (  0.0%)
Orbital Orthonormalization  ....       0.000 sec  (  0.0%)
DIIS solution               ....       0.006 sec  (  4.8%)
SOSCF solution              ....       0.027 sec  ( 20.3%)

-------------------------   --------------------
FINAL SINGLE POINT ENERGY       -22.244804110219
-------------------------   --------------------


                            ***************************************
                            *     ORCA property calculations      *
                            ***************************************

                                    ---------------------
                                    Active property flags
                                    ---------------------
   (+) Dipole Moment


------------------------------------------------------------------------------
                       ORCA ELECTRIC PROPERTIES CALCULATION
------------------------------------------------------------------------------

Dipole Moment Calculation                       ... on
Quadrupole Moment Calculation                   ... off
Polarizability Calculation                      ... off
GBWName                                         ... /home/mattyjones/Software/morphct/tests/output_EZ/donor_polymer/chromophores/input_orca/pair/00005-00017.gbw
Electron density file                           ... /home/mattyjones/Software/morphct/tests/output_EZ/donor_polymer/chromophores/input_orca/pair/00005-00017.scfp.tmp
The origin for moment calculation is the CENTER OF MASS  = ( 0.046893, -0.573284 -0.318133)

-------------
DIPOLE MOMENT
-------------
                                X             Y             Z
Electronic contribution:      3.51328     -57.89593     -26.00635
Nuclear contribution   :     -2.08935      31.04472      14.47711
                        -----------------------------------------
Total Dipole Moment    :      1.42393     -26.85121     -11.52924
                        -----------------------------------------
Magnitude (a.u.)       :     29.25642
Magnitude (Debye)      :     74.36392


Timings for individual modules:

Sum of individual times         ...        0.172 sec (=   0.003 min)
STO integral calculation        ...        0.019 sec (=   0.000 min)  10.9 %
SCF iterations                  ...        0.153 sec (=   0.003 min)  89.1 %
                             ****ORCA TERMINATED NORMALLY****
TOTAL RUN TIME: 0 days 0 hours 0 minutes 0 seconds 484 msec

