
                                 *****************
                                 * O   R   C   A *
                                 *****************

           --- An Ab Initio, DFT and Semiempirical electronic structure package ---

                  #######################################################
                  #                        -***-                        #
                  #  Department of molecular theory and spectroscopy    #
                  #              Directorship: Frank Neese              #
                  # Max Planck Institute for Chemical Energy Conversion #
                  #                  D-45470 Muelheim/Ruhr              #
                  #                       Germany                       #
                  #                                                     #
                  #                  All rights reserved                #
                  #                        -***-                        #
                  #######################################################


                         Program Version 3.0.3 - RELEASE   -


 With contributions from (in alphabetic order):
   Ute Becker             : Parallelization
   Dmytro Bykov           : SCF Hessian
   Dmitry Ganyushin       : Spin-Orbit,Spin-Spin,Magnetic field MRCI
   Andreas Hansen         : Spin unrestricted coupled pair/coupled cluster methods
   Dimitrios Liakos       : Extrapolation schemes; parallel MDCI
   Robert Izsak           : Overlap fitted RIJCOSX, COSX-SCS-MP3
   Christian Kollmar      : KDIIS, OOCD, Brueckner-CCSD(T), CCSD density
   Simone Kossmann        : Meta GGA functionals, TD-DFT gradient, OOMP2, MP2 Hessian
   Taras Petrenko         : DFT Hessian,TD-DFT gradient, ASA and ECA modules, normal mode analysis, Resonance Raman, ABS, FL, XAS/XES, NRVS
   Christoph Reimann      : Effective Core Potentials
   Michael Roemelt        : Restricted open shell CIS
   Christoph Riplinger    : Improved optimizer, TS searches, QM/MM, DLPNO-CCSD
   Barbara Sandhoefer     : DKH picture change effects
   Igor Schapiro          : Molecular dynamics
   Kantharuban Sivalingam : CASSCF convergence, NEVPT2
   Boris Wezisla          : Elementary symmetry handling
   Frank Wennmohs         : Technical directorship


 We gratefully acknowledge several colleagues who have allowed us to
 interface, adapt or use parts of their codes:
   Stefan Grimme, W. Hujo, H. Kruse, T. Risthaus : VdW corrections, initial TS optimization,
                                                   DFT functionals, gCP
   Ed Valeev                                     : LibInt (2-el integral package), F12 methods
   Garnet Chan, S. Sharma, R. Olivares           : DMRG
   Ulf Ekstrom                                   : XCFun DFT Library
   Mihaly Kallay                                 : mrcc  (arbitrary order and MRCC methods)
   Andreas Klamt, Michael Diedenhofen            : otool_cosmo (COSMO solvation model)
   Frank Weinhold                                : gennbo (NPA and NBO analysis)
   Christopher J. Cramer and Donald G. Truhlar   : smd solvation model


 Your calculation uses the libint2 library for the computation of 2-el integrals
 For citations please refer to: http://libint.valeyev.net

 This ORCA versions uses:
   CBLAS   interface :  Fast vector & matrix operations
   LAPACKE interface :  Fast linear algebra routines
   SCALAPACK package :  Parallel linear algebra routines


leaving
================================================================================
                                        WARNINGS
                       Please study these warnings very carefully!
================================================================================
Now building the actual basis set

WARNING: Direct SCF is incompatible with Method<>HF and Method<>DFT
  ===> : conventional SCF is chosen

WARNING: The NDO methods need Guess=HUECKEL or Guess=HCORE or Guess=MOREAD
  ===> : Guess is set to Hueckel

WARNING: The NDO methods need %rel::SOCType==1
  ===> : %rel::SOCType is set to 1

WARNING: The NDO methods cannot have frozencore=1
  ===> : %method FrozenCore=0 end


INFO   : the flag for use of LIBINT has been found!

================================================================================
                                       INPUT FILE
================================================================================
NAME = /Users/mattyjones/GoogleDrive/Boise/Code/MorphCT/tests/output_EZ/donor_polymer/chromophores/input_orca/pair/00009-00017.inp
|  1> # ================================================================
|  2> # Orca input file made by Matty Jones
|  3> # ================================================================
|  4> ! ZINDO/S 
|  5> ! NOPOP
|  6> ! NOMOPRINT
|  7> * xyz 0   1
|  8>  C  17.46054  3.06043  8.00393
|  9>  C  18.71980  3.19558  7.41751
| 10>  C  19.80073  2.76994  8.25099
| 11>  C  19.39294  2.29630  9.50186
| 12>  S  17.73970  2.42723  9.51066
| 13>  H  19.07497  4.17023  6.86461
| 14>  C  21.31875  2.86451  7.70206
| 15>  C  21.73251  4.36559  6.99122
| 16>  C  23.26276  4.64969  6.29996
| 17>  H  23.08872  5.39370  5.42871
| 18>  H  23.61550  3.64134  5.85467
| 19>  H  20.98832  4.54861  6.13066
| 20>  H  21.58365  5.16278  7.81051
| 21>  H  22.07284  2.69006  8.57084
| 22>  H  21.49878  2.05147  6.89248
| 23>  C  24.43227  5.24313  7.26135
| 24>  C  25.90606  5.67105  6.53247
| 25>  C  26.01829  5.56137  4.85690
| 26>  H  25.84005  4.46743  4.52757
| 27>  H  27.07691  5.89738  4.52775
| 28>  H  25.22756  6.25221  4.37141
| 29>  H  26.12997  6.76501  6.82287
| 30>  H  26.72063  4.98637  6.97834
| 31>  H  24.68014  4.45642  8.07410
| 32>  H  24.03488  6.19709  7.78450
| 33>  C  -17.36401  -4.53091  -6.66950
| 34>  C  -18.46527  -5.05023  -7.35170
| 35>  C  -19.61270  -4.19723  -7.34326
| 36>  C  -19.41648  -2.99830  -6.65089
| 37>  S  -17.85559  -3.05591  -6.09344
| 38>  H  -18.30202  -5.31103  -8.52205
| 39>  C  -20.92883  -4.72330  -8.12002
| 40>  C  -22.52734  -4.34699  -7.73609
| 41>  C  -23.25897  -5.27885  -6.53815
| 42>  H  -22.90015  -6.37067  -6.65774
| 43>  H  -22.89420  -4.87669  -5.51593
| 44>  H  -22.57889  -3.24217  -7.42318
| 45>  H  -23.14563  -4.49183  -8.70364
| 46>  H  -20.90877  -5.89541  -8.11051
| 47>  H  -20.81930  -4.40910  -9.24788
| 48>  C  -24.88645  -5.22936  -6.59656
| 49>  C  -25.62152  -3.81537  -6.04386
| 50>  C  -25.90778  -2.71301  -7.28772
| 51>  H  -25.12534  -1.86283  -7.23115
| 52>  H  -26.97126  -2.27254  -7.16516
| 53>  H  -25.82862  -3.24369  -8.31284
| 54>  H  -26.62941  -4.08871  -5.55887
| 55>  H  -24.93608  -3.31775  -5.26445
| 56>  H  -25.23506  -5.41156  -7.68468
| 57>  H  -25.29987  -6.09142  -5.93891
| 58>  H  16.52331  3.30997  7.57624
| 59>  H  20.01108  1.93021  10.28128
| 60>  H  -16.41371  -4.98393  -6.54575
| 61>  H  -20.11842  -2.21634  -6.51151
| 62> *
| 63> 
| 64>                          ****END OF INPUT****
================================================================================

                       ****************************
                       * Single Point Calculation *
                       ****************************

---------------------------------
CARTESIAN COORDINATES (ANGSTROEM)
---------------------------------
  C     17.460540    3.060430    8.003930
  C     18.719800    3.195580    7.417510
  C     19.800730    2.769940    8.250990
  C     19.392940    2.296300    9.501860
  S     17.739700    2.427230    9.510660
  H     19.074970    4.170230    6.864610
  C     21.318750    2.864510    7.702060
  C     21.732510    4.365590    6.991220
  C     23.262760    4.649690    6.299960
  H     23.088720    5.393700    5.428710
  H     23.615500    3.641340    5.854670
  H     20.988320    4.548610    6.130660
  H     21.583650    5.162780    7.810510
  H     22.072840    2.690060    8.570840
  H     21.498780    2.051470    6.892480
  C     24.432270    5.243130    7.261350
  C     25.906060    5.671050    6.532470
  C     26.018290    5.561370    4.856900
  H     25.840050    4.467430    4.527570
  H     27.076910    5.897380    4.527750
  H     25.227560    6.252210    4.371410
  H     26.129970    6.765010    6.822870
  H     26.720630    4.986370    6.978340
  H     24.680140    4.456420    8.074100
  H     24.034880    6.197090    7.784500
  C    -17.364010   -4.530910   -6.669500
  C    -18.465270   -5.050230   -7.351700
  C    -19.612700   -4.197230   -7.343260
  C    -19.416480   -2.998300   -6.650890
  S    -17.855590   -3.055910   -6.093440
  H    -18.302020   -5.311030   -8.522050
  C    -20.928830   -4.723300   -8.120020
  C    -22.527340   -4.346990   -7.736090
  C    -23.258970   -5.278850   -6.538150
  H    -22.900150   -6.370670   -6.657740
  H    -22.894200   -4.876690   -5.515930
  H    -22.578890   -3.242170   -7.423180
  H    -23.145630   -4.491830   -8.703640
  H    -20.908770   -5.895410   -8.110510
  H    -20.819300   -4.409100   -9.247880
  C    -24.886450   -5.229360   -6.596560
  C    -25.621520   -3.815370   -6.043860
  C    -25.907780   -2.713010   -7.287720
  H    -25.125340   -1.862830   -7.231150
  H    -26.971260   -2.272540   -7.165160
  H    -25.828620   -3.243690   -8.312840
  H    -26.629410   -4.088710   -5.558870
  H    -24.936080   -3.317750   -5.264450
  H    -25.235060   -5.411560   -7.684680
  H    -25.299870   -6.091420   -5.938910
  H     16.523310    3.309970    7.576240
  H     20.011080    1.930210   10.281280
  H    -16.413710   -4.983930   -6.545750
  H    -20.118420   -2.216340   -6.511510

----------------------------
CARTESIAN COORDINATES (A.U.)
----------------------------
  NO LB      ZA    FRAG    MASS        X           Y           Z
   0 C     4.0000    0    12.011         32.995638750377374          5.783374552036617         15.125235695076325
   1 C     4.0000    0    12.011         35.375295281779046          6.038771039036074         14.017062495622223
   2 C     4.0000    0    12.011         37.417956951718551          5.234428007393832         15.592111433722907
   3 C     4.0000    0    12.011         36.647345531566799          4.339378121323370         17.955913162860984
   4 S     6.0000    0    32.060         33.523174697922826          4.586799964037680         17.972542752839491
   5 H     1.0000    0     1.008         36.046469312763861          7.880592615462422         12.972232916177163
   6 C     4.0000    0    12.011         40.286599017533689          5.413139407878765         14.554784067029516
   7 C     4.0000    0    12.011         41.068492102704944          8.249769512985278         13.211491141992934
   8 C     4.0000    0    12.011         43.960245519137935          8.786640707632303         11.905199054658528
   9 H     1.0000    0     1.008         43.631357582790280         10.192615848531055         10.258775160479637
  10 H     1.0000    0     1.008         44.626827515617322          6.881135360492810         11.063722904484734
  11 H     1.0000    0     1.008         39.662176811102086          8.595627190015545         11.585268420185660
  12 H     1.0000    0     1.008         40.787187470409421          9.756240289685959         14.759724866253276
  13 H     1.0000    0     1.008         41.711622597862359          5.083476683816202         16.196540337657620
  14 H     1.0000    0     1.008         40.626806413423530          3.876716471955430         13.024899583529548
  15 C     4.0000    0    12.011         46.170299130020176          9.908079784546532         13.721962862549081
  16 C     4.0000    0    12.011         48.955358608931981         10.716731391774115         12.344579278056559
  17 C     4.0000    0    12.011         49.167442572941965         10.509466229405632          9.178210859842128
  18 H     1.0000    0     1.008         48.830617786831844          8.442219222463818          8.555867352157842
  19 H     1.0000    0     1.008         51.167944452833680         11.144433107664511          8.556207502861948
  20 H     1.0000    0     1.008         47.673179427066415         11.814964631763788          8.260767719084699
  21 H     1.0000    0     1.008         49.378487187578287         12.784016193238607         12.893355747347290
  22 H     1.0000    0     1.008         50.494672825840212          9.422873702400912         13.187151469388027
  23 H     1.0000    0     1.008         46.638705546835240          8.421413337729344         15.257837777893577
  24 H     1.0000    0     1.008         45.419340861661212         11.710802927262050         14.710573089509984
  25 C     4.0000    0    12.011        -32.813223486669955         -8.562179037445139        -12.603528450187788
  26 C     4.0000    0    12.011        -34.894303288912070         -9.543551613313122        -13.892699618748866
  27 C     4.0000    0    12.011        -37.062631746757333         -7.931615221078296        -13.876750330178570
  28 C     4.0000    0    12.011        -36.691829684759306         -5.665965867336089        -12.568360646835513
  29 S     6.0000    0    32.060        -33.742175059582962         -5.774832989911292        -11.514932813481112
  30 H     1.0000    0     1.008        -34.585805497549423        -10.036392189039784        -16.104340599583605
  31 C     4.0000    0    12.011        -39.549757003395115         -8.925743448350248        -15.344614001963242
  32 C     4.0000    0    12.011        -42.570503125729566         -8.214620606894341        -14.619091447366856
  33 C     4.0000    0    12.011        -43.953083457090379         -9.975580802050199        -12.355312922497232
  34 H     1.0000    0     1.008        -43.275011925716754        -12.038821589588100        -12.581305270852875
  35 H     1.0000    0     1.008        -43.263768055219920         -9.215608540032429        -10.423597073880250
  36 H     1.0000    0     1.008        -42.667918507933216         -6.126813379615465        -14.027777242801557
  37 H     1.0000    0     1.008        -43.738901897071742         -8.488328540131496        -16.447495968242364
  38 H     1.0000    0     1.008        -39.511849097148648        -11.140710347180686        -15.326642706429650
  39 H     1.0000    0     1.008        -39.342775299946709         -8.331991497072190        -17.475960519367664
  40 C     4.0000    0    12.011        -47.028574945524532         -9.882058255682436        -12.465691825979572
  41 C     4.0000    0    12.011        -48.417655934786026         -7.210004399579126        -11.421240191761296
  42 C     4.0000    0    12.011        -48.958608937882325         -5.126845898589695        -13.771794940700584
  43 H     1.0000    0     1.008        -47.480011621656985         -3.520238534052525        -13.664893133304659
  44 H     1.0000    0     1.008        -50.968294886784896         -4.294478228381401        -13.540190105727197
  45 H     1.0000    0     1.008        -48.809018217121121         -6.129685763339025        -15.708990995105937
  46 H     1.0000    0     1.008        -50.322292007903918         -7.726542141025161        -10.504741914070827
  47 H     1.0000    0     1.008        -47.122362053551043         -6.269638880817233         -9.948368745721734
  48 H     1.0000    0     1.008        -47.687352373070823        -10.226366357282888        -14.521940626821964
  49 H     1.0000    0     1.008        -47.809825523810254        -11.511115566690592        -11.222913434006260
  50 H     1.0000    0     1.008         31.224530725882353          6.254936811495325         14.317018724859544
  51 H     1.0000    0     1.008         37.815460843988880          3.647568280956139         19.428803506161888
  52 H     1.0000    0     1.008        -31.017416741604585         -9.418262770634144        -12.369674841115033
  53 H     1.0000    0     1.008        -38.018304047203991         -4.188275619655028        -12.304970618289570

--------------------------------
INTERNAL COORDINATES (ANGSTROEM)
--------------------------------
 C      0   0   0   0.000000     0.000     0.000
 C      1   0   0   1.395668     0.000     0.000
 C      2   1   0   1.429779   114.102     0.000
 C      3   2   1   1.398322   113.693     0.000
 S      1   2   3   1.658043   105.480     0.000
 H      2   1   3   1.175494   123.404   227.235
 C      3   2   1   1.616989   119.632   179.837
 C      7   3   2   1.711646   114.785    48.035
 C      8   7   3   1.703003   122.146   182.342
 H      9   8   7   1.158843   106.101   148.205
 H      9   8   7   1.157358   106.540    32.821
 H      8   7   3   1.152336   107.057   302.506
 H      8   7   3   1.152782   106.266    59.719
 H      7   3   2   1.163556   110.254   168.358
 H      7   3   2   1.161406   109.951   287.778
 C      9   8   7   1.626098   117.850   270.015
 C     16   9   8   1.698952   117.527   186.039
 C     17  16   9   1.682902   117.942     4.461
 H     18  17  16   1.156258   109.570   299.255
 H     18  17  16   1.158412   108.962   179.428
 H     18  17  16   1.156812   109.472    59.822
 H     17  16   9   1.153783   107.408   125.897
 H     17  16   9   1.153738   107.289   243.157
 H     16   9   8   1.157979   108.722    64.854
 H     16   9   8   1.158294   108.714   307.011
 C      1   2   3  38.544614   132.400   212.108
 C     26   1   2   1.395659   166.476    49.126
 C     27  26   1   1.429782   114.102   192.657
 C     28  27  26   1.398325   113.693     0.000
 S     26   1   2   1.658047    87.730   241.327
 H     27  26  30   1.210118   116.518   121.344
 C     28  27  26   1.616262   117.160   179.656
 C     32  28  27   1.686489   126.142   150.586
 C     33  32  28   1.684846   116.746   275.850
 H     34  33  32   1.155476   108.311   322.227
 H     34  33  32   1.157464   107.392    79.544
 H     33  32  28   1.149433   108.600    38.944
 H     33  32  28   1.157331   106.746   156.213
 H     32  28  27   1.172320   107.914    27.553
 H     32  28  27   1.175919   107.345   273.855
 C     34  33  32   1.629280   113.046   200.594
 C     41  34  33   1.686764   116.681   285.318
 C     42  41  34   1.686514   112.348    93.129
 H     43  42  41   1.156814   109.239   255.945
 H     43  42  41   1.157594   109.060   136.096
 H     43  42  41   1.157047   110.001    16.186
 H     42  41  34   1.151422   108.692   213.208
 H     42  41  34   1.151058   108.952   332.825
 H     41  34  33   1.157035   109.262    48.123
 H     41  34  33   1.160417   108.240   165.472
 H      1   2   3   1.059995   127.260   180.000
 H      4   3   2   1.060007   127.206   180.000
 H     26   1   2   1.060005    39.623    64.995
 H     29  28  27   1.060004   127.206   180.000

---------------------------
INTERNAL COORDINATES (A.U.)
---------------------------
 C      0   0   0   0.000000     0.000     0.000
 C      1   0   0   2.637431     0.000     0.000
 C      2   1   0   2.701891   114.102     0.000
 C      3   2   1   2.642445   113.693     0.000
 S      1   2   3   3.133248   105.480     0.000
 H      2   1   3   2.221362   123.404   227.235
 C      3   2   1   3.055666   119.632   179.837
 C      7   3   2   3.234542   114.785    48.035
 C      8   7   3   3.218209   122.146   182.342
 H      9   8   7   2.189896   106.101   148.205
 H      9   8   7   2.187090   106.540    32.821
 H      8   7   3   2.177600   107.057   302.506
 H      8   7   3   2.178443   106.266    59.719
 H      7   3   2   2.198803   110.254   168.358
 H      7   3   2   2.194740   109.951   287.778
 C      9   8   7   3.072880   117.850   270.015
 C     16   9   8   3.210554   117.527   186.039
 C     17  16   9   3.180224   117.942     4.461
 H     18  17  16   2.185011   109.570   299.255
 H     18  17  16   2.189082   108.962   179.428
 H     18  17  16   2.186058   109.472    59.822
 H     17  16   9   2.180335   107.408   125.897
 H     17  16   9   2.180249   107.289   243.157
 H     16   9   8   2.188263   108.722    64.854
 H     16   9   8   2.188858   108.714   307.011
 C      1   2   3  72.838765   132.400   212.108
 C     26   1   2   2.637413   166.476    49.126
 C     27  26   1   2.701896   114.102   192.657
 C     28  27  26   2.642451   113.693     0.000
 S     26   1   2   3.133255    87.730   241.327
 H     27  26  30   2.286792   116.518   121.344
 C     28  27  26   3.054293   117.160   179.656
 C     32  28  27   3.187003   126.142   150.586
 C     33  32  28   3.183897   116.746   275.850
 H     34  33  32   2.183533   108.311   322.227
 H     34  33  32   2.187290   107.392    79.544
 H     33  32  28   2.172114   108.600    38.944
 H     33  32  28   2.187038   106.746   156.213
 H     32  28  27   2.215364   107.914    27.553
 H     32  28  27   2.222166   107.345   273.855
 C     34  33  32   3.078892   113.046   200.594
 C     41  34  33   3.187522   116.681   285.318
 C     42  41  34   3.187050   112.348    93.129
 H     43  42  41   2.186062   109.239   255.945
 H     43  42  41   2.187536   109.060   136.096
 H     43  42  41   2.186503   110.001    16.186
 H     42  41  34   2.175872   108.692   213.208
 H     42  41  34   2.175184   108.952   332.825
 H     41  34  33   2.186480   109.262    48.123
 H     41  34  33   2.192870   108.240   165.472
 H      1   2   3   2.003100   127.260   180.000
 H      4   3   2   2.003123   127.206   180.000
 H     26   1   2   2.003120    39.623    64.995
 H     29  28  27   2.003117   127.206   180.000

----------------------------
SLATER BASIS SET DIM= 120
----------------------------
  0 C     2 shells
 l=0 nsto= 1
    2       1.625000000000        1.000000000000
 l=1 nsto= 1
    2       1.625000000000        1.000000000000
  1 C     2 shells
 l=0 nsto= 1
    2       1.625000000000        1.000000000000
 l=1 nsto= 1
    2       1.625000000000        1.000000000000
  2 C     2 shells
 l=0 nsto= 1
    2       1.625000000000        1.000000000000
 l=1 nsto= 1
    2       1.625000000000        1.000000000000
  3 C     2 shells
 l=0 nsto= 1
    2       1.625000000000        1.000000000000
 l=1 nsto= 1
    2       1.625000000000        1.000000000000
  4 S     2 shells
 l=0 nsto= 1
    3       1.925000000000        1.000000000000
 l=1 nsto= 1
    3       1.925000000000        1.000000000000
  5 H     1 shells
 l=0 nsto= 1
    1       1.200000000000        1.000000000000
  6 C     2 shells
 l=0 nsto= 1
    2       1.625000000000        1.000000000000
 l=1 nsto= 1
    2       1.625000000000        1.000000000000
  7 C     2 shells
 l=0 nsto= 1
    2       1.625000000000        1.000000000000
 l=1 nsto= 1
    2       1.625000000000        1.000000000000
  8 C     2 shells
 l=0 nsto= 1
    2       1.625000000000        1.000000000000
 l=1 nsto= 1
    2       1.625000000000        1.000000000000
  9 H     1 shells
 l=0 nsto= 1
    1       1.200000000000        1.000000000000
 10 H     1 shells
 l=0 nsto= 1
    1       1.200000000000        1.000000000000
 11 H     1 shells
 l=0 nsto= 1
    1       1.200000000000        1.000000000000
 12 H     1 shells
 l=0 nsto= 1
    1       1.200000000000        1.000000000000
 13 H     1 shells
 l=0 nsto= 1
    1       1.200000000000        1.000000000000
 14 H     1 shells
 l=0 nsto= 1
    1       1.200000000000        1.000000000000
 15 C     2 shells
 l=0 nsto= 1
    2       1.625000000000        1.000000000000
 l=1 nsto= 1
    2       1.625000000000        1.000000000000
 16 C     2 shells
 l=0 nsto= 1
    2       1.625000000000        1.000000000000
 l=1 nsto= 1
    2       1.625000000000        1.000000000000
 17 C     2 shells
 l=0 nsto= 1
    2       1.625000000000        1.000000000000
 l=1 nsto= 1
    2       1.625000000000        1.000000000000
 18 H     1 shells
 l=0 nsto= 1
    1       1.200000000000        1.000000000000
 19 H     1 shells
 l=0 nsto= 1
    1       1.200000000000        1.000000000000
 20 H     1 shells
 l=0 nsto= 1
    1       1.200000000000        1.000000000000
 21 H     1 shells
 l=0 nsto= 1
    1       1.200000000000        1.000000000000
 22 H     1 shells
 l=0 nsto= 1
    1       1.200000000000        1.000000000000
 23 H     1 shells
 l=0 nsto= 1
    1       1.200000000000        1.000000000000
 24 H     1 shells
 l=0 nsto= 1
    1       1.200000000000        1.000000000000
 25 C     2 shells
 l=0 nsto= 1
    2       1.625000000000        1.000000000000
 l=1 nsto= 1
    2       1.625000000000        1.000000000000
 26 C     2 shells
 l=0 nsto= 1
    2       1.625000000000        1.000000000000
 l=1 nsto= 1
    2       1.625000000000        1.000000000000
 27 C     2 shells
 l=0 nsto= 1
    2       1.625000000000        1.000000000000
 l=1 nsto= 1
    2       1.625000000000        1.000000000000
 28 C     2 shells
 l=0 nsto= 1
    2       1.625000000000        1.000000000000
 l=1 nsto= 1
    2       1.625000000000        1.000000000000
 29 S     2 shells
 l=0 nsto= 1
    3       1.925000000000        1.000000000000
 l=1 nsto= 1
    3       1.925000000000        1.000000000000
 30 H     1 shells
 l=0 nsto= 1
    1       1.200000000000        1.000000000000
 31 C     2 shells
 l=0 nsto= 1
    2       1.625000000000        1.000000000000
 l=1 nsto= 1
    2       1.625000000000        1.000000000000
 32 C     2 shells
 l=0 nsto= 1
    2       1.625000000000        1.000000000000
 l=1 nsto= 1
    2       1.625000000000        1.000000000000
 33 C     2 shells
 l=0 nsto= 1
    2       1.625000000000        1.000000000000
 l=1 nsto= 1
    2       1.625000000000        1.000000000000
 34 H     1 shells
 l=0 nsto= 1
    1       1.200000000000        1.000000000000
 35 H     1 shells
 l=0 nsto= 1
    1       1.200000000000        1.000000000000
 36 H     1 shells
 l=0 nsto= 1
    1       1.200000000000        1.000000000000
 37 H     1 shells
 l=0 nsto= 1
    1       1.200000000000        1.000000000000
 38 H     1 shells
 l=0 nsto= 1
    1       1.200000000000        1.000000000000
 39 H     1 shells
 l=0 nsto= 1
    1       1.200000000000        1.000000000000
 40 C     2 shells
 l=0 nsto= 1
    2       1.625000000000        1.000000000000
 l=1 nsto= 1
    2       1.625000000000        1.000000000000
 41 C     2 shells
 l=0 nsto= 1
    2       1.625000000000        1.000000000000
 l=1 nsto= 1
    2       1.625000000000        1.000000000000
 42 C     2 shells
 l=0 nsto= 1
    2       1.625000000000        1.000000000000
 l=1 nsto= 1
    2       1.625000000000        1.000000000000
 43 H     1 shells
 l=0 nsto= 1
    1       1.200000000000        1.000000000000
 44 H     1 shells
 l=0 nsto= 1
    1       1.200000000000        1.000000000000
 45 H     1 shells
 l=0 nsto= 1
    1       1.200000000000        1.000000000000
 46 H     1 shells
 l=0 nsto= 1
    1       1.200000000000        1.000000000000
 47 H     1 shells
 l=0 nsto= 1
    1       1.200000000000        1.000000000000
 48 H     1 shells
 l=0 nsto= 1
    1       1.200000000000        1.000000000000
 49 H     1 shells
 l=0 nsto= 1
    1       1.200000000000        1.000000000000
 50 H     1 shells
 l=0 nsto= 1
    1       1.200000000000        1.000000000000
 51 H     1 shells
 l=0 nsto= 1
    1       1.200000000000        1.000000000000
 52 H     1 shells
 l=0 nsto= 1
    1       1.200000000000        1.000000000000
 53 H     1 shells
 l=0 nsto= 1
    1       1.200000000000        1.000000000000
------------------------------------------------------------------------------
                           ORCA NDO INTEGRAL CALCULATION
------------------------------------------------------------------------------

--------------
NDO PARAMETERS
--------------

Gamma integral treatment              ... Mataga-Nishimoto
Nuclear repulsuion treatment          ... Direct (ZA*ZB/RAB)
Interaction factors:
s-s (sigma) =    1.0000
s-p (sigma) =    1.0000
s-d (sigma) =    1.0000
p-p (sigma) =    1.2670  p-p(pi) =    0.5850
p-d (sigma) =    1.0000  p-d(pi) =    1.0000
d-d (sigma) =    1.0000  d-d(pi) =    1.0000 d-d (delta) =    1.0000

fGamma parameter for Mataga-Nishimoto gamma integrals:    1.2000

--------------------------
Parameters for Element H :
--------------------------
 One-electron parameters (in eV)
  U(s)  =   -13.060000 Beta(s) =    12.000000 Neff(s) =     1.000000
 One-center electron repulsion parameters (in eV)
  G(s,s)=    12.850000
--------------------------
Parameters for Element C :
--------------------------
 One-electron parameters (in eV)
  U(s)  =   -50.870766 Beta(s) =    17.000000 Neff(s) =     2.000000
  U(p)  =   -41.599980 Beta(p) =    17.000000 Neff(p) =     2.000000 
 One-center electron repulsion parameters (in eV)
  G(s,s)=    11.110000
  G(s,p)=    11.110000 G(p,p)  =    11.110000
 Slater-Condon parameters (in eV)
 F2(p,p)=     4.5098 G1(s,p)=    6.8977
--------------------------
Parameters for Element S :
--------------------------
 One-electron parameters (in eV)
  U(s)  =   -69.509597 Beta(s) =    15.000000 Neff(s) =     2.000000
  U(p)  =   -60.725746 Beta(p) =    15.000000 Neff(p) =     4.000000 
 One-center electron repulsion parameters (in eV)
  G(s,s)=    10.090000
  G(s,p)=    10.090000 G(p,p)  =    10.090000
 Slater-Condon parameters (in eV)
 F2(p,p)=     4.5377 G1(s,p)=    3.0756

 Number of atoms                    ....   54
 Number of basis functions          ....  120

 Overlap integrals                  .... done
 One electron matrix                .... done
 Nuclear repulsion                  .... done
 Integral list                      .... done
 Electron-electron repulsion        .... done
-------------------------------------------------------------------------------
                                 ORCA SCF
-------------------------------------------------------------------------------

------------
SCF SETTINGS
------------
Hamiltonian:
 ZDO-Hamiltonian        Method          .... INDO


General Settings:
 Integral files         IntName         .... /Users/mattyjones/GoogleDrive/Boise/Code/MorphCT/tests/output_EZ/donor_polymer/chromophores/input_orca/pair/00009-00017
 Hartree-Fock type      HFTyp           .... RHF
 Total Charge           Charge          ....    0
 Multiplicity           Mult            ....    1
 Number of Electrons    NEL             ....  124
 Basis Dimension        Dim             ....  120
 Nuclear Repulsion      ENuc            ....    631.0031002788 Eh

Convergence Acceleration:
 DIIS                   CNVDIIS         .... on
   Start iteration      DIISMaxIt       ....    12
   Startup error        DIISStart       ....  0.200000
   # of expansion vecs  DIISMaxEq       ....     5
   Bias factor          DIISBfac        ....   1.050
   Max. coefficient     DIISMaxC        ....  10.000
 Newton-Raphson         CNVNR           .... off
 SOSCF                  CNVSOSCF        .... on
   Start iteration      SOSCFMaxIt      ....   150
   Startup grad/error   SOSCFStart      ....  0.003300
 Level Shifting         CNVShift        .... on
   Level shift para.    LevelShift      ....    0.2500
   Turn off err/grad.   ShiftErr        ....    0.0010
 Zerner damping         CNVZerner       .... off
 Static damping         CNVDamp         .... on
   Fraction old density DampFac         ....    0.7000
   Max. Damping (<1)    DampMax         ....    0.9800
   Min. Damping (>=0)   DampMin         ....    0.0000
   Turn off err/grad.   DampErr         ....    0.1000
 Fernandez-Rico         CNVRico         .... off

SCF Procedure:
 Maximum # iterations   MaxIter         ....   125
 SCF integral mode      SCFMode         .... Conventional
 Integral Buffer length BufferLength    .... 1048576
 Integral index format  IndFormat       ....     0
 Integral value format  ValFormat       ....     0
 Integral Storage       Thresh          ....  1.000e-08 Eh

Convergence Tolerance:
 Convergence Check Mode ConvCheckMode   .... Total+1el-Energy
 Energy Change          TolE            ....  1.000e-06 Eh
 1-El. energy change                    ....  1.000e-03 Eh
 Orbital Gradient       TolG            ....  5.000e-05
 Orbital Rotation angle TolX            ....  5.000e-05
 DIIS Error             TolErr          ....  1.000e-06


Diagonalization of the overlap matrix:
Smallest eigenvalue                        ... 1.676e-01
Time for diagonalization                   ...    0.003 sec
Threshold for overlap eigenvalues          ... 1.000e-08
Number of eigenvalues below threshold      ... 0
Time for construction of square roots      ...    0.001 sec
Total time needed                          ...    0.004 sec

-------------------------------
INITIAL GUESS: EXTENDED HUECKEL
-------------------------------
EHT matrix was read from disk
EHT matrix was diagonalized
Initial density was built
                      ------------------
                      INITIAL GUESS DONE
                      ------------------

 InCore treatment chosen:
   Memory dedicated               ...    1024 MB
   Memory needed                  ...      0 MB
   Number of tiny    integrals    ...       0
   Number of small   integrals    ...       0
   Number of regular integrals    ...    7392

--------------
SCF ITERATIONS
--------------
ITER       Energy         Delta-E        Max-DP      RMS-DP      [F,P]     Damp
  0    -20.7165992467   0.000000000000 0.04789767  0.00156348  0.1251217 0.7000
  1    -20.7641097402  -0.047510493546 0.04680483  0.00148020  0.0856988 0.7000
                               ***Turning on DIIS***
  2    -20.7990459097  -0.034936169485 0.12368331  0.00380081  0.0521004 0.0000
  3    -20.8911748436  -0.092128933901 0.02076644  0.00078908  0.0237107 0.0000
  4    -20.8716472544   0.019527589191 0.01683861  0.00056707  0.0095315 0.0000
  5    -20.8910065490  -0.019359294574 0.01187825  0.00038748  0.0057378 0.0000
  6    -20.8927296926  -0.001723143625 0.00836603  0.00028201  0.0031655 0.0000
  7    -20.8900042734   0.002725419260 0.00471214  0.00016931  0.0018250 0.0000
                      *** Initiating the SOSCF procedure ***
                           *** Shutting down DIIS ***
                      *** Re-Reading the Fockian *** 
                      *** Removing any level shift *** 
ITER      Energy       Delta-E        Grad      Rot      Max-DP    RMS-DP
  8    -20.88908227   0.0009220034  0.002015  0.002015  0.002513  0.000092
  9    -20.88799553   0.0010867426  0.000572  0.001703  0.001335  0.000044
 10    -20.88800234  -0.0000068089  0.000270  0.001906  0.001693  0.000052
 11    -20.88800511  -0.0000027778  0.000041  0.000104  0.000206  0.000006
                 **** Energy Check signals convergence ****
              ***Rediagonalizing the Fockian in SOSCF/NRSCF***

               *****************************************************
               *                     SUCCESS                       *
               *           SCF CONVERGED AFTER  12 CYCLES          *
               *****************************************************


----------------
TOTAL SCF ENERGY
----------------

Total Energy       :          -20.88800519 Eh            -568.39152 eV

Components:
Nuclear Repulsion  :          631.00310028 Eh           17170.46729 eV
Electronic Energy  :         -651.89110547 Eh          -17738.85881 eV

One Electron Energy:        -1213.50185422 Eh          -33021.06421 eV
Two Electron Energy:          561.61074875 Eh           15282.20541 eV


---------------
SCF CONVERGENCE
---------------

  Last Energy change         ...   -7.8170e-08  Tolerance :   1.0000e-06
  Last MAX-Density change    ...    7.9905e-05  Tolerance :   1.0000e-05
  Last RMS-Density change    ...    1.9508e-06  Tolerance :   1.0000e-06
  Last Orbital Gradient      ...    1.4258e-05  Tolerance :   5.0000e-05
  Last Orbital Rotation      ...    3.5947e-05  Tolerance :   5.0000e-05

             **** THE GBW FILE WAS UPDATED (/Users/mattyjones/GoogleDrive/Boise/Code/MorphCT/tests/output_EZ/donor_polymer/chromophores/input_orca/pair/00009-00017.gbw) ****
             **** DENSITY FILE WAS UPDATED (/Users/mattyjones/GoogleDrive/Boise/Code/MorphCT/tests/output_EZ/donor_polymer/chromophores/input_orca/pair/00009-00017.scfp.tmp) ****
             **** ENERGY FILE WAS UPDATED (/Users/mattyjones/GoogleDrive/Boise/Code/MorphCT/tests/output_EZ/donor_polymer/chromophores/input_orca/pair/00009-00017.en.tmp) ****
----------------
ORBITAL ENERGIES
----------------

  NO   OCC          E(Eh)            E(eV) 
   0   2.0000      -1.563794       -42.5530 
   1   2.0000      -1.563055       -42.5329 
   2   2.0000      -1.409467       -38.3536 
   3   2.0000      -1.395416       -37.9712 
   4   2.0000      -1.290351       -35.1122 
   5   2.0000      -1.285553       -34.9817 
   6   2.0000      -1.175107       -31.9763 
   7   2.0000      -1.174834       -31.9688 
   8   2.0000      -1.113836       -30.3090 
   9   2.0000      -1.105209       -30.0743 
  10   2.0000      -1.059909       -28.8416 
  11   2.0000      -1.045512       -28.4498 
  12   2.0000      -0.963615       -26.2213 
  13   2.0000      -0.957980       -26.0680 
  14   2.0000      -0.914084       -24.8735 
  15   2.0000      -0.882998       -24.0276 
  16   2.0000      -0.860441       -23.4138 
  17   2.0000      -0.832527       -22.6542 
  18   2.0000      -0.830805       -22.6074 
  19   2.0000      -0.826090       -22.4791 
  20   2.0000      -0.776225       -21.1222 
  21   2.0000      -0.766882       -20.8679 
  22   2.0000      -0.736779       -20.0488 
  23   2.0000      -0.722251       -19.6535 
  24   2.0000      -0.703894       -19.1539 
  25   2.0000      -0.688330       -18.7304 
  26   2.0000      -0.667874       -18.1738 
  27   2.0000      -0.658947       -17.9309 
  28   2.0000      -0.654508       -17.8101 
  29   2.0000      -0.653354       -17.7787 
  30   2.0000      -0.617464       -16.8021 
  31   2.0000      -0.616662       -16.7802 
  32   2.0000      -0.593558       -16.1515 
  33   2.0000      -0.586860       -15.9693 
  34   2.0000      -0.577605       -15.7174 
  35   2.0000      -0.576152       -15.6779 
  36   2.0000      -0.575409       -15.6577 
  37   2.0000      -0.560172       -15.2431 
  38   2.0000      -0.552910       -15.0454 
  39   2.0000      -0.547462       -14.8972 
  40   2.0000      -0.543023       -14.7764 
  41   2.0000      -0.534698       -14.5499 
  42   2.0000      -0.526781       -14.3344 
  43   2.0000      -0.519986       -14.1495 
  44   2.0000      -0.507268       -13.8035 
  45   2.0000      -0.504996       -13.7416 
  46   2.0000      -0.497350       -13.5336 
  47   2.0000      -0.492680       -13.4065 
  48   2.0000      -0.482719       -13.1354 
  49   2.0000      -0.480135       -13.0651 
  50   2.0000      -0.479611       -13.0509 
  51   2.0000      -0.473345       -12.8804 
  52   2.0000      -0.468639       -12.7523 
  53   2.0000      -0.464108       -12.6290 
  54   2.0000      -0.460688       -12.5360 
  55   2.0000      -0.454852       -12.3772 
  56   2.0000      -0.436181       -11.8691 
  57   2.0000      -0.433517       -11.7966 
  58   2.0000      -0.346961        -9.4413 
  59   2.0000      -0.339125        -9.2281 
  60   2.0000      -0.304866        -8.2958 
  61   2.0000      -0.304788        -8.2937 
  62   0.0000      -0.003332        -0.0907 
  63   0.0000       0.001521         0.0414 
  64   0.0000       0.054653         1.4872 
  65   0.0000       0.057056         1.5526 
  66   0.0000       0.073743         2.0067 
  67   0.0000       0.075086         2.0432 
  68   0.0000       0.090335         2.4581 
  69   0.0000       0.091435         2.4881 
  70   0.0000       0.103504         2.8165 
  71   0.0000       0.105389         2.8678 
  72   0.0000       0.106985         2.9112 
  73   0.0000       0.111495         3.0339 
  74   0.0000       0.125181         3.4064 
  75   0.0000       0.128654         3.5009 
  76   0.0000       0.143618         3.9080 
  77   0.0000       0.146758         3.9935 
  78   0.0000       0.156301         4.2532 
  79   0.0000       0.159286         4.3344 
  80   0.0000       0.168719         4.5911 
  81   0.0000       0.169025         4.5994 
  82   0.0000       0.183558         4.9949 
  83   0.0000       0.184379         5.0172 
  84   0.0000       0.201485         5.4827 
  85   0.0000       0.203951         5.5498 
  86   0.0000       0.232089         6.3155 
  87   0.0000       0.233439         6.3522 
  88   0.0000       0.236019         6.4224 
  89   0.0000       0.236759         6.4425 
  90   0.0000       0.236990         6.4488 
  91   0.0000       0.237507         6.4629 
  92   0.0000       0.238272         6.4837 
  93   0.0000       0.240163         6.5352 
  94   0.0000       0.240609         6.5473 
  95   0.0000       0.242309         6.5936 
  96   0.0000       0.243282         6.6200 
  97   0.0000       0.243783         6.6337 
  98   0.0000       0.245410         6.6780 
  99   0.0000       0.247012         6.7215 
 100   0.0000       0.248741         6.7686 
 101   0.0000       0.256340         6.9754 
 102   0.0000       0.257807         7.0153 
 103   0.0000       0.261559         7.1174 
 104   0.0000       0.263617         7.1734 
 105   0.0000       0.265176         7.2158 
 106   0.0000       0.281247         7.6531 
 107   0.0000       0.281550         7.6614 
 108   0.0000       0.302866         8.2414 
 109   0.0000       0.305010         8.2998 
 110   0.0000       0.308783         8.4024 
 111   0.0000       0.308790         8.4026 
 112   0.0000       0.327773         8.9192 
 113   0.0000       0.333933         9.0868 
 114   0.0000       0.347347         9.4518 
 115   0.0000       0.352711         9.5978 
 116   0.0000       0.415220        11.2987 
 117   0.0000       0.417570        11.3626 
 118   0.0000       0.428687        11.6652 
 119   0.0000       0.432028        11.7561 
-------
TIMINGS
-------

Total SCF time: 0 days 0 hours 0 min 0 sec 

Total time                  ....       0.145 sec
Sum of individual times     ....       0.118 sec  ( 81.3%)

Fock matrix formation       ....       0.058 sec  ( 40.2%)
Diagonalization             ....       0.029 sec  ( 20.3%)
Density matrix formation    ....       0.006 sec  (  4.1%)
Population analysis         ....       0.000 sec  (  0.0%)
Initial guess               ....       0.003 sec  (  2.0%)
Orbital Transformation      ....       0.000 sec  (  0.0%)
Orbital Orthonormalization  ....       0.000 sec  (  0.0%)
DIIS solution               ....       0.015 sec  ( 10.6%)
SOSCF solution              ....       0.006 sec  (  4.1%)

-------------------------   --------------------
FINAL SINGLE POINT ENERGY       -20.888005192264
-------------------------   --------------------


                            ***************************************
                            *     ORCA property calculations      *
                            ***************************************

                                    ---------------------
                                    Active property flags
                                    ---------------------
   (+) Dipole Moment


------------------------------------------------------------------------------
                       ORCA ELECTRIC PROPERTIES CALCULATION
------------------------------------------------------------------------------

Dipole Moment Calculation                       ... on
Quadrupole Moment Calculation                   ... off
Polarizability Calculation                      ... off
GBWName                                         ... /Users/mattyjones/GoogleDrive/Boise/Code/MorphCT/tests/output_EZ/donor_polymer/chromophores/input_orca/pair/00009-00017.gbw
Electron density file                           ... /Users/mattyjones/GoogleDrive/Boise/Code/MorphCT/tests/output_EZ/donor_polymer/chromophores/input_orca/pair/00009-00017.scfp.tmp

-------------
DIPOLE MOMENT
-------------
                                X             Y             Z
Electronic contribution:     -4.36726     -25.58177      86.25863
Nuclear contribution   :      1.30013      14.03231     -46.52093
                        -----------------------------------------
Total Dipole Moment    :     -3.06713     -11.54946      39.73770
                        -----------------------------------------
Magnitude (a.u.)       :     41.49557
Magnitude (Debye)      :    105.47334


Timings for individual modules:

Sum of individual times         ...        0.218 sec (=   0.004 min)
STO integral calculation        ...        0.036 sec (=   0.001 min)  16.7 %
SCF iterations                  ...        0.181 sec (=   0.003 min)  83.3 %
                             ****ORCA TERMINATED NORMALLY****
TOTAL RUN TIME: 0 days 0 hours 0 minutes 0 seconds 510 msec

