
                                 *****************
                                 * O   R   C   A *
                                 *****************

           --- An Ab Initio, DFT and Semiempirical electronic structure package ---

                  #######################################################
                  #                        -***-                        #
                  #  Department of molecular theory and spectroscopy    #
                  #              Directorship: Frank Neese              #
                  # Max Planck Institute for Chemical Energy Conversion #
                  #                  D-45470 Muelheim/Ruhr              #
                  #                       Germany                       #
                  #                                                     #
                  #                  All rights reserved                #
                  #                        -***-                        #
                  #######################################################


                         Program Version 3.0.3 - RELEASE   -


 With contributions from (in alphabetic order):
   Ute Becker             : Parallelization
   Dmytro Bykov           : SCF Hessian
   Dmitry Ganyushin       : Spin-Orbit,Spin-Spin,Magnetic field MRCI
   Andreas Hansen         : Spin unrestricted coupled pair/coupled cluster methods
   Dimitrios Liakos       : Extrapolation schemes; parallel MDCI
   Robert Izsak           : Overlap fitted RIJCOSX, COSX-SCS-MP3
   Christian Kollmar      : KDIIS, OOCD, Brueckner-CCSD(T), CCSD density
   Simone Kossmann        : Meta GGA functionals, TD-DFT gradient, OOMP2, MP2 Hessian
   Taras Petrenko         : DFT Hessian,TD-DFT gradient, ASA and ECA modules, normal mode analysis, Resonance Raman, ABS, FL, XAS/XES, NRVS
   Christoph Reimann      : Effective Core Potentials
   Michael Roemelt        : Restricted open shell CIS
   Christoph Riplinger    : Improved optimizer, TS searches, QM/MM, DLPNO-CCSD
   Barbara Sandhoefer     : DKH picture change effects
   Igor Schapiro          : Molecular dynamics
   Kantharuban Sivalingam : CASSCF convergence, NEVPT2
   Boris Wezisla          : Elementary symmetry handling
   Frank Wennmohs         : Technical directorship


 We gratefully acknowledge several colleagues who have allowed us to
 interface, adapt or use parts of their codes:
   Stefan Grimme, W. Hujo, H. Kruse, T. Risthaus : VdW corrections, initial TS optimization,
                                                   DFT functionals, gCP
   Ed Valeev                                     : LibInt (2-el integral package), F12 methods
   Garnet Chan, S. Sharma, R. Olivares           : DMRG
   Ulf Ekstrom                                   : XCFun DFT Library
   Mihaly Kallay                                 : mrcc  (arbitrary order and MRCC methods)
   Andreas Klamt, Michael Diedenhofen            : otool_cosmo (COSMO solvation model)
   Frank Weinhold                                : gennbo (NPA and NBO analysis)
   Christopher J. Cramer and Donald G. Truhlar   : smd solvation model


 Your calculation uses the libint2 library for the computation of 2-el integrals
 For citations please refer to: http://libint.valeyev.net

 This ORCA versions uses:
   CBLAS   interface :  Fast vector & matrix operations
   LAPACKE interface :  Fast linear algebra routines
   SCALAPACK package :  Parallel linear algebra routines


leaving
================================================================================
                                        WARNINGS
                       Please study these warnings very carefully!
================================================================================
Now building the actual basis set

WARNING: Direct SCF is incompatible with Method<>HF and Method<>DFT
  ===> : conventional SCF is chosen

WARNING: The NDO methods need Guess=HUECKEL or Guess=HCORE or Guess=MOREAD
  ===> : Guess is set to Hueckel

WARNING: The NDO methods need %rel::SOCType==1
  ===> : %rel::SOCType is set to 1

WARNING: The NDO methods cannot have frozencore=1
  ===> : %method FrozenCore=0 end


INFO   : the flag for use of LIBINT has been found!

================================================================================
                                       INPUT FILE
================================================================================
NAME = /Users/mattyjones/GoogleDrive/Boise/Code/MorphCT/tests/output_EZ/donor_polymer/chromophores/input_orca/pair/00016-00018.inp
|  1> # ================================================================
|  2> # Orca input file made by Matty Jones
|  3> # ================================================================
|  4> ! ZINDO/S 
|  5> ! NOPOP
|  6> ! NOMOPRINT
|  7> * xyz 0   1
|  8>  C  0.20112  -6.23201  -4.92326
|  9>  C  1.39377  -5.67643  -4.45761
| 10>  C  1.21648  -4.53263  -3.61824
| 11>  C  -0.12293  -4.18326  -3.42010
| 12>  S  -1.00493  -5.29234  -4.28175
| 13>  H  2.41843  -6.10816  -4.70997
| 14>  C  2.60561  -3.89420  -3.08228
| 15>  C  3.04295  -2.26118  -3.12433
| 16>  C  2.58007  -1.34530  -1.79202
| 17>  H  1.49093  -1.58924  -1.51649
| 18>  H  2.66184  -0.22772  -2.07647
| 19>  H  4.19396  -2.20971  -3.20750
| 20>  H  2.57635  -1.79594  -4.06998
| 21>  H  2.68817  -4.17840  -1.94718
| 22>  H  3.49806  -4.43175  -3.61736
| 23>  C  3.55328  -1.67314  -0.52784
| 24>  C  3.20899  -0.82728  0.88654
| 25>  C  4.19782  0.50999  1.12324
| 26>  H  3.85014  1.37623  0.44097
| 27>  H  5.29113  0.22572  0.86797
| 28>  H  4.13446  0.83500  2.23240
| 29>  H  2.11687  -0.45957  0.83145
| 30>  H  3.32813  -1.54251  1.78163
| 31>  H  4.64980  -1.44468  -0.81976
| 32>  H  3.47115  -2.80013  -0.27300
| 33>  C  -3.66344  0.32650  -1.84985
| 34>  C  -3.07175  0.69373  -0.64033
| 35>  C  -3.85148  1.60489  0.13818
| 36>  C  -5.06499  1.95892  -0.45963
| 37>  S  -5.10873  1.13752  -1.89970
| 38>  H  -2.27573  0.07810  -0.12300
| 39>  C  -3.16662  2.03878  1.52597
| 40>  C  -1.55934  2.50787  1.20253
| 41>  C  -0.50454  2.82158  2.46844
| 42>  H  0.56017  2.85386  2.00214
| 43>  H  -0.54993  1.90001  3.17097
| 44>  H  -1.04550  1.69507  0.56813
| 45>  H  -1.63843  3.47543  0.57310
| 46>  H  -3.72468  2.94121  1.99276
| 47>  H  -3.16199  1.15987  2.27874
| 48>  C  -0.72329  4.18023  3.32019
| 49>  C  -1.56674  3.85963  4.75163
| 50>  C  -3.23882  3.90386  4.61101
| 51>  H  -3.54435  4.69316  3.82210
| 52>  H  -3.69498  4.18443  5.63759
| 53>  H  -3.62575  2.86118  4.29206
| 54>  H  -1.26530  2.81282  5.13046
| 55>  H  -1.24868  4.64983  5.52876
| 56>  H  -1.32493  4.95154  2.70599
| 57>  H  0.29866  4.64046  3.60272
| 58>  H  0.08983  -7.07660  -5.55404
| 59>  H  -0.49634  -3.37812  -2.84052
| 60>  H  -3.27149  -0.33204  -2.58218
| 61>  H  -5.80252  2.61495  -0.07326
| 62> *
| 63> 
| 64>                          ****END OF INPUT****
================================================================================

                       ****************************
                       * Single Point Calculation *
                       ****************************

---------------------------------
CARTESIAN COORDINATES (ANGSTROEM)
---------------------------------
  C      0.201120   -6.232010   -4.923260
  C      1.393770   -5.676430   -4.457610
  C      1.216480   -4.532630   -3.618240
  C     -0.122930   -4.183260   -3.420100
  S     -1.004930   -5.292340   -4.281750
  H      2.418430   -6.108160   -4.709970
  C      2.605610   -3.894200   -3.082280
  C      3.042950   -2.261180   -3.124330
  C      2.580070   -1.345300   -1.792020
  H      1.490930   -1.589240   -1.516490
  H      2.661840   -0.227720   -2.076470
  H      4.193960   -2.209710   -3.207500
  H      2.576350   -1.795940   -4.069980
  H      2.688170   -4.178400   -1.947180
  H      3.498060   -4.431750   -3.617360
  C      3.553280   -1.673140   -0.527840
  C      3.208990   -0.827280    0.886540
  C      4.197820    0.509990    1.123240
  H      3.850140    1.376230    0.440970
  H      5.291130    0.225720    0.867970
  H      4.134460    0.835000    2.232400
  H      2.116870   -0.459570    0.831450
  H      3.328130   -1.542510    1.781630
  H      4.649800   -1.444680   -0.819760
  H      3.471150   -2.800130   -0.273000
  C     -3.663440    0.326500   -1.849850
  C     -3.071750    0.693730   -0.640330
  C     -3.851480    1.604890    0.138180
  C     -5.064990    1.958920   -0.459630
  S     -5.108730    1.137520   -1.899700
  H     -2.275730    0.078100   -0.123000
  C     -3.166620    2.038780    1.525970
  C     -1.559340    2.507870    1.202530
  C     -0.504540    2.821580    2.468440
  H      0.560170    2.853860    2.002140
  H     -0.549930    1.900010    3.170970
  H     -1.045500    1.695070    0.568130
  H     -1.638430    3.475430    0.573100
  H     -3.724680    2.941210    1.992760
  H     -3.161990    1.159870    2.278740
  C     -0.723290    4.180230    3.320190
  C     -1.566740    3.859630    4.751630
  C     -3.238820    3.903860    4.611010
  H     -3.544350    4.693160    3.822100
  H     -3.694980    4.184430    5.637590
  H     -3.625750    2.861180    4.292060
  H     -1.265300    2.812820    5.130460
  H     -1.248680    4.649830    5.528760
  H     -1.324930    4.951540    2.705990
  H      0.298660    4.640460    3.602720
  H      0.089830   -7.076600   -5.554040
  H     -0.496340   -3.378120   -2.840520
  H     -3.271490   -0.332040   -2.582180
  H     -5.802520    2.614950   -0.073260

----------------------------
CARTESIAN COORDINATES (A.U.)
----------------------------
  NO LB      ZA    FRAG    MASS        X           Y           Z
   0 C     4.0000    0    12.011          0.380061720054242        -11.776792163858579         -9.303613086089142
   1 C     4.0000    0    12.011          2.633843593675423        -10.726898118374610         -8.423662111828710
   2 C     4.0000    0    12.011          2.298814047392524         -8.565429366395483         -6.837482686799230
   3 C     4.0000    0    12.011         -0.232304033642939         -7.905215746987415         -6.463052350624073
   4 S     6.0000    0    32.060         -1.899042483761484        -10.001073207596798         -8.091334873917319
   5 H     1.0000    0     1.008          4.570170374059172        -11.542749582172432         -8.900553398985078
   6 C     4.0000    0    12.011          4.923889311806552         -7.358971510716138         -5.824665068062796
   7 C     4.0000    0    12.011          5.750342139215673         -4.273010939500056         -5.904128051994184
   8 C     4.0000    0    12.011          4.875625706346204         -2.542248567964260         -3.386427026509562
   9 H     1.0000    0     1.008          2.817449384847212         -3.003228361073010         -2.865750784830239
  10 H     1.0000    0     1.008          5.030148612316945         -0.430328435216547         -3.923959625303461
  11 H     1.0000    0     1.008          7.925435816620372         -4.175746735387129         -6.061296574552415
  12 H     1.0000    0     1.008          4.868595925128017         -3.393834752954533         -7.691147570536816
  13 H     1.0000    0     1.008          5.079905101423091         -7.896031677976557         -3.679636933448783
  14 H     1.0000    0     1.008          6.610375400024574         -8.374793794005507         -6.835819727801379
  15 C     4.0000    0    12.011          6.714726077139705         -3.161776383709003         -0.997473042528993
  16 C     4.0000    0    12.011          6.064112266491957         -1.563332636070373          1.675317806766546
  17 C     4.0000    0    12.011          7.932730159497309          0.963741431038499          2.122615982665707
  18 H     1.0000    0     1.008          7.275710177255568          2.600697797286444          0.833312533275254
  19 H     1.0000    0     1.008          9.998786638974751          0.426548982948705          1.640225592459629
  20 H     1.0000    0     1.008          7.812997111652058          1.577921321824245          4.218624621365803
  21 H     1.0000    0     1.008          4.000304561113880         -0.868461439366190          1.571212794048825
  22 H     1.0000    0     1.008          6.289254238087335         -2.914921458834870          3.366792771978120
  23 H     1.0000    0     1.008          8.786848577507035         -2.730049551153354         -1.549121895543285
  24 H     1.0000    0     1.008          6.559522869760753         -5.291478839376914         -0.515895234560502
  25 C     4.0000    0    12.011         -6.922898308052471          0.616995582725289         -3.495709888834227
  26 C     4.0000    0    12.011         -5.804766251872605          1.310959710885190         -1.210048335333795
  27 C     4.0000    0    12.011         -7.278242410275023          3.032802575068878          0.261122357185239
  28 C     4.0000    0    12.011         -9.571443971049801          3.701822318261018         -0.868574822934225
  29 S     6.0000    0    32.060         -9.654100592147516          2.149601271858102         -3.589912736610202
  30 H     1.0000    0     1.008         -4.300506454748610          0.147587611059250         -0.232436314472314
  31 C     4.0000    0    12.011         -5.984044570197714          3.852735847315969          2.883665388579812
  32 C     4.0000    0    12.011         -2.946725549668765          4.739187479477089          2.272452367824323
  33 C     4.0000    0    12.011         -0.953442423608628          5.332013464949525          4.664675578016575
  34 H     1.0000    0     1.008          1.058567888438667          5.393013824552503          3.783496281769094
  35 H     1.0000    0     1.008         -1.039217092827314          3.590498551711717          5.992264878880271
  36 H     1.0000    0     1.008         -1.975708673014669          3.203218077825896          1.073610108464681
  37 H     1.0000    0     1.008         -3.096183989600596          6.567610897613935          1.083002047350270
  38 H     1.0000    0     1.008         -7.038625136493808          5.558081402350524          3.765770650632914
  39 H     1.0000    0     1.008         -5.975295138197659          2.191836650951242          4.306194530411713
  40 C     4.0000    0    12.011         -1.366820015403902          7.899489876801634          6.274249812584001
  41 C     4.0000    0    12.011         -2.960709523059782          7.293643678266481          8.979279389724237
  42 C     4.0000    0    12.011         -6.120482797066829          7.377226265169817          8.713546100772231
  43 H     1.0000    0     1.008         -6.697850822763789          8.868787102673862          7.222722256460416
  44 H     1.0000    0     1.008         -6.982500270316347          7.907426726564103         10.653501155333110
  45 H     1.0000    0     1.008         -6.851674530064979          5.406846619852807          8.110817950358047
  46 H     1.0000    0     1.008         -2.391070477250560          5.315459464016375          9.695164341037625
  47 H     1.0000    0     1.008         -2.359663228904789          8.786905269291053         10.447842260178460
  48 H     1.0000    0     1.008         -2.503754846616284          9.357054541156433          5.113580021129567
  49 H     1.0000    0     1.008          0.564385607156921          8.769198535416212          6.808154137200772
  50 H     1.0000    0     1.008          0.169754098610146        -13.372835959307130        -10.495614536843988
  51 H     1.0000    0     1.008         -0.937946669310474         -6.383721647522059         -5.367804877925994
  52 H     1.0000    0     1.008         -6.182220149862036         -0.627464665507212         -4.879613028488778
  53 H     1.0000    0     1.008        -10.965173686600743          4.941539353897377         -0.138441336571071

--------------------------------
INTERNAL COORDINATES (ANGSTROEM)
--------------------------------
 C      0   0   0   0.000000     0.000     0.000
 C      1   0   0   1.395677     0.000     0.000
 C      2   1   0   1.429773   114.102     0.000
 C      3   2   1   1.398334   113.693     0.000
 S      1   2   3   1.658032   105.480     0.000
 H      2   1   3   1.140177   122.914   178.987
 C      3   2   1   1.620040   113.776   179.999
 C      7   3   2   1.691091   126.447   131.351
 C      8   7   3   1.681709   115.787    88.597
 H      9   8   7   1.149630   109.577   315.168
 H      9   8   7   1.156107   108.184   196.044
 H      8   7   3   1.155158   107.608   209.333
 H      8   7   3   1.152570   107.788   326.809
 H      7   3   2   1.173046   106.559   253.398
 H      7   3   2   1.171212   108.745     7.374
 C      9   8   7   1.628732   109.927    75.817
 C     16   9   8   1.683593   115.388   180.049
 C     17  16   9   1.679912   113.449   260.959
 H     18  17  16   1.156177   109.649    77.185
 H     18  17  16   1.158145   109.222   316.903
 H     18  17  16   1.157533   109.044   197.425
 H     17  16   9   1.153677   108.277    20.918
 H     17  16   9   1.151926   108.644   139.697
 H     16   9   8   1.157483   109.304    58.339
 H     16   9   8   1.158359   108.919   300.141
 C     10   9   8   5.508967   142.950   256.601
 C     26  10   9   1.395670    69.047   266.369
 C     27  26  10   1.429779   114.101   172.381
 C     28  27  26   1.398328   113.693     0.000
 S     26  10   9   1.658042   170.930   320.516
 H     27  26  10   1.131494   123.458   330.475
 C     28  27  26   1.607251   114.193   180.482
 C     32  28  27   1.705288   108.186    48.883
 C     33  32  28   1.677363   120.067   188.238
 H     34  33  32   1.162792   106.161   166.206
 H     34  33  32   1.159698   106.496    51.846
 H     33  32  28   1.152015   109.315   310.237
 H     33  32  28   1.156983   105.593    67.037
 H     32  28  27   1.159182   110.654   167.521
 H     32  28  27   1.157224   110.999   289.114
 C     34  33  32   1.618413   117.982   287.621
 C     41  34  33   1.692103   110.703    98.611
 C     42  41  34   1.678565   114.877   272.435
 H     43  42  41   1.157032   109.764   327.079
 H     43  42  41   1.157872   108.938   207.090
 H     43  42  41   1.156990   109.420    87.614
 H     42  41  34   1.153338   108.636    33.704
 H     42  41  34   1.153043   107.627   151.801
 H     41  34  33   1.155046   110.557   338.389
 H     41  34  33   1.155862   110.084   217.973
 H      1   2   3   1.060001   127.260   180.000
 H      4   3   2   1.059999   127.206   180.000
 H     26  10   9   1.060003    58.654    93.467
 H     29  28  27   1.060004   127.206   180.000

---------------------------
INTERNAL COORDINATES (A.U.)
---------------------------
 C      0   0   0   0.000000     0.000     0.000
 C      1   0   0   2.637446     0.000     0.000
 C      2   1   0   2.701880   114.102     0.000
 C      3   2   1   2.642468   113.693     0.000
 S      1   2   3   3.133227   105.480     0.000
 H      2   1   3   2.154623   122.914   178.987
 C      3   2   1   3.061431   113.776   179.999
 C      7   3   2   3.195699   126.447   131.351
 C      8   7   3   3.177969   115.787    88.597
 H      9   8   7   2.172486   109.577   315.168
 H      9   8   7   2.184725   108.184   196.044
 H      8   7   3   2.182933   107.608   209.333
 H      8   7   3   2.178042   107.788   326.809
 H      7   3   2   2.216736   106.559   253.398
 H      7   3   2   2.213270   108.745     7.374
 C      9   8   7   3.077857   109.927    75.817
 C     16   9   8   3.181530   115.388   180.049
 C     17  16   9   3.174573   113.449   260.959
 H     18  17  16   2.184858   109.649    77.185
 H     18  17  16   2.188576   109.222   316.903
 H     18  17  16   2.187420   109.044   197.425
 H     17  16   9   2.180134   108.277    20.918
 H     17  16   9   2.176825   108.644   139.697
 H     16   9   8   2.187326   109.304    58.339
 H     16   9   8   2.188981   108.919   300.141
 C     10   9   8  10.410439   142.950   256.601
 C     26  10   9   2.637433    69.047   266.369
 C     27  26  10   2.701892   114.101   172.381
 C     28  27  26   2.642457   113.693     0.000
 S     26  10   9   3.133244   170.930   320.516
 H     27  26  10   2.138214   123.458   330.475
 C     28  27  26   3.037264   114.193   180.482
 C     32  28  27   3.222528   108.186    48.883
 C     33  32  28   3.169756   120.067   188.238
 H     34  33  32   2.197358   106.161   166.206
 H     34  33  32   2.191512   106.496    51.846
 H     33  32  28   2.176993   109.315   310.237
 H     33  32  28   2.186381   105.593    67.037
 H     32  28  27   2.190537   110.654   167.521
 H     32  28  27   2.186836   110.999   289.114
 C     34  33  32   3.058357   117.982   287.621
 C     41  34  33   3.197611   110.703    98.611
 C     42  41  34   3.172029   114.877   272.435
 H     43  42  41   2.186473   109.764   327.079
 H     43  42  41   2.188061   108.938   207.090
 H     43  42  41   2.186394   109.420    87.614
 H     42  41  34   2.179494   108.636    33.704
 H     42  41  34   2.178936   107.627   151.801
 H     41  34  33   2.182721   110.557   338.389
 H     41  34  33   2.184262   110.084   217.973
 H      1   2   3   2.003111   127.260   180.000
 H      4   3   2   2.003108   127.206   180.000
 H     26  10   9   2.003116    58.654    93.467
 H     29  28  27   2.003117   127.206   180.000

----------------------------
SLATER BASIS SET DIM= 120
----------------------------
  0 C     2 shells
 l=0 nsto= 1
    2       1.625000000000        1.000000000000
 l=1 nsto= 1
    2       1.625000000000        1.000000000000
  1 C     2 shells
 l=0 nsto= 1
    2       1.625000000000        1.000000000000
 l=1 nsto= 1
    2       1.625000000000        1.000000000000
  2 C     2 shells
 l=0 nsto= 1
    2       1.625000000000        1.000000000000
 l=1 nsto= 1
    2       1.625000000000        1.000000000000
  3 C     2 shells
 l=0 nsto= 1
    2       1.625000000000        1.000000000000
 l=1 nsto= 1
    2       1.625000000000        1.000000000000
  4 S     2 shells
 l=0 nsto= 1
    3       1.925000000000        1.000000000000
 l=1 nsto= 1
    3       1.925000000000        1.000000000000
  5 H     1 shells
 l=0 nsto= 1
    1       1.200000000000        1.000000000000
  6 C     2 shells
 l=0 nsto= 1
    2       1.625000000000        1.000000000000
 l=1 nsto= 1
    2       1.625000000000        1.000000000000
  7 C     2 shells
 l=0 nsto= 1
    2       1.625000000000        1.000000000000
 l=1 nsto= 1
    2       1.625000000000        1.000000000000
  8 C     2 shells
 l=0 nsto= 1
    2       1.625000000000        1.000000000000
 l=1 nsto= 1
    2       1.625000000000        1.000000000000
  9 H     1 shells
 l=0 nsto= 1
    1       1.200000000000        1.000000000000
 10 H     1 shells
 l=0 nsto= 1
    1       1.200000000000        1.000000000000
 11 H     1 shells
 l=0 nsto= 1
    1       1.200000000000        1.000000000000
 12 H     1 shells
 l=0 nsto= 1
    1       1.200000000000        1.000000000000
 13 H     1 shells
 l=0 nsto= 1
    1       1.200000000000        1.000000000000
 14 H     1 shells
 l=0 nsto= 1
    1       1.200000000000        1.000000000000
 15 C     2 shells
 l=0 nsto= 1
    2       1.625000000000        1.000000000000
 l=1 nsto= 1
    2       1.625000000000        1.000000000000
 16 C     2 shells
 l=0 nsto= 1
    2       1.625000000000        1.000000000000
 l=1 nsto= 1
    2       1.625000000000        1.000000000000
 17 C     2 shells
 l=0 nsto= 1
    2       1.625000000000        1.000000000000
 l=1 nsto= 1
    2       1.625000000000        1.000000000000
 18 H     1 shells
 l=0 nsto= 1
    1       1.200000000000        1.000000000000
 19 H     1 shells
 l=0 nsto= 1
    1       1.200000000000        1.000000000000
 20 H     1 shells
 l=0 nsto= 1
    1       1.200000000000        1.000000000000
 21 H     1 shells
 l=0 nsto= 1
    1       1.200000000000        1.000000000000
 22 H     1 shells
 l=0 nsto= 1
    1       1.200000000000        1.000000000000
 23 H     1 shells
 l=0 nsto= 1
    1       1.200000000000        1.000000000000
 24 H     1 shells
 l=0 nsto= 1
    1       1.200000000000        1.000000000000
 25 C     2 shells
 l=0 nsto= 1
    2       1.625000000000        1.000000000000
 l=1 nsto= 1
    2       1.625000000000        1.000000000000
 26 C     2 shells
 l=0 nsto= 1
    2       1.625000000000        1.000000000000
 l=1 nsto= 1
    2       1.625000000000        1.000000000000
 27 C     2 shells
 l=0 nsto= 1
    2       1.625000000000        1.000000000000
 l=1 nsto= 1
    2       1.625000000000        1.000000000000
 28 C     2 shells
 l=0 nsto= 1
    2       1.625000000000        1.000000000000
 l=1 nsto= 1
    2       1.625000000000        1.000000000000
 29 S     2 shells
 l=0 nsto= 1
    3       1.925000000000        1.000000000000
 l=1 nsto= 1
    3       1.925000000000        1.000000000000
 30 H     1 shells
 l=0 nsto= 1
    1       1.200000000000        1.000000000000
 31 C     2 shells
 l=0 nsto= 1
    2       1.625000000000        1.000000000000
 l=1 nsto= 1
    2       1.625000000000        1.000000000000
 32 C     2 shells
 l=0 nsto= 1
    2       1.625000000000        1.000000000000
 l=1 nsto= 1
    2       1.625000000000        1.000000000000
 33 C     2 shells
 l=0 nsto= 1
    2       1.625000000000        1.000000000000
 l=1 nsto= 1
    2       1.625000000000        1.000000000000
 34 H     1 shells
 l=0 nsto= 1
    1       1.200000000000        1.000000000000
 35 H     1 shells
 l=0 nsto= 1
    1       1.200000000000        1.000000000000
 36 H     1 shells
 l=0 nsto= 1
    1       1.200000000000        1.000000000000
 37 H     1 shells
 l=0 nsto= 1
    1       1.200000000000        1.000000000000
 38 H     1 shells
 l=0 nsto= 1
    1       1.200000000000        1.000000000000
 39 H     1 shells
 l=0 nsto= 1
    1       1.200000000000        1.000000000000
 40 C     2 shells
 l=0 nsto= 1
    2       1.625000000000        1.000000000000
 l=1 nsto= 1
    2       1.625000000000        1.000000000000
 41 C     2 shells
 l=0 nsto= 1
    2       1.625000000000        1.000000000000
 l=1 nsto= 1
    2       1.625000000000        1.000000000000
 42 C     2 shells
 l=0 nsto= 1
    2       1.625000000000        1.000000000000
 l=1 nsto= 1
    2       1.625000000000        1.000000000000
 43 H     1 shells
 l=0 nsto= 1
    1       1.200000000000        1.000000000000
 44 H     1 shells
 l=0 nsto= 1
    1       1.200000000000        1.000000000000
 45 H     1 shells
 l=0 nsto= 1
    1       1.200000000000        1.000000000000
 46 H     1 shells
 l=0 nsto= 1
    1       1.200000000000        1.000000000000
 47 H     1 shells
 l=0 nsto= 1
    1       1.200000000000        1.000000000000
 48 H     1 shells
 l=0 nsto= 1
    1       1.200000000000        1.000000000000
 49 H     1 shells
 l=0 nsto= 1
    1       1.200000000000        1.000000000000
 50 H     1 shells
 l=0 nsto= 1
    1       1.200000000000        1.000000000000
 51 H     1 shells
 l=0 nsto= 1
    1       1.200000000000        1.000000000000
 52 H     1 shells
 l=0 nsto= 1
    1       1.200000000000        1.000000000000
 53 H     1 shells
 l=0 nsto= 1
    1       1.200000000000        1.000000000000
------------------------------------------------------------------------------
                           ORCA NDO INTEGRAL CALCULATION
------------------------------------------------------------------------------

--------------
NDO PARAMETERS
--------------

Gamma integral treatment              ... Mataga-Nishimoto
Nuclear repulsuion treatment          ... Direct (ZA*ZB/RAB)
Interaction factors:
s-s (sigma) =    1.0000
s-p (sigma) =    1.0000
s-d (sigma) =    1.0000
p-p (sigma) =    1.2670  p-p(pi) =    0.5850
p-d (sigma) =    1.0000  p-d(pi) =    1.0000
d-d (sigma) =    1.0000  d-d(pi) =    1.0000 d-d (delta) =    1.0000

fGamma parameter for Mataga-Nishimoto gamma integrals:    1.2000

--------------------------
Parameters for Element H :
--------------------------
 One-electron parameters (in eV)
  U(s)  =   -13.060000 Beta(s) =    12.000000 Neff(s) =     1.000000
 One-center electron repulsion parameters (in eV)
  G(s,s)=    12.850000
--------------------------
Parameters for Element C :
--------------------------
 One-electron parameters (in eV)
  U(s)  =   -50.870766 Beta(s) =    17.000000 Neff(s) =     2.000000
  U(p)  =   -41.599980 Beta(p) =    17.000000 Neff(p) =     2.000000 
 One-center electron repulsion parameters (in eV)
  G(s,s)=    11.110000
  G(s,p)=    11.110000 G(p,p)  =    11.110000
 Slater-Condon parameters (in eV)
 F2(p,p)=     4.5098 G1(s,p)=    6.8977
--------------------------
Parameters for Element S :
--------------------------
 One-electron parameters (in eV)
  U(s)  =   -69.509597 Beta(s) =    15.000000 Neff(s) =     2.000000
  U(p)  =   -60.725746 Beta(p) =    15.000000 Neff(p) =     4.000000 
 One-center electron repulsion parameters (in eV)
  G(s,s)=    10.090000
  G(s,p)=    10.090000 G(p,p)  =    10.090000
 Slater-Condon parameters (in eV)
 F2(p,p)=     4.5377 G1(s,p)=    3.0756

 Number of atoms                    ....   54
 Number of basis functions          ....  120

 Overlap integrals                  .... done
 One electron matrix                .... done
 Nuclear repulsion                  .... done
 Integral list                      .... done
 Electron-electron repulsion        .... done
-------------------------------------------------------------------------------
                                 ORCA SCF
-------------------------------------------------------------------------------

------------
SCF SETTINGS
------------
Hamiltonian:
 ZDO-Hamiltonian        Method          .... INDO


General Settings:
 Integral files         IntName         .... /Users/mattyjones/GoogleDrive/Boise/Code/MorphCT/tests/output_EZ/donor_polymer/chromophores/input_orca/pair/00016-00018
 Hartree-Fock type      HFTyp           .... RHF
 Total Charge           Charge          ....    0
 Multiplicity           Mult            ....    1
 Number of Electrons    NEL             ....  124
 Basis Dimension        Dim             ....  120
 Nuclear Repulsion      ENuc            ....    832.9560307571 Eh

Convergence Acceleration:
 DIIS                   CNVDIIS         .... on
   Start iteration      DIISMaxIt       ....    12
   Startup error        DIISStart       ....  0.200000
   # of expansion vecs  DIISMaxEq       ....     5
   Bias factor          DIISBfac        ....   1.050
   Max. coefficient     DIISMaxC        ....  10.000
 Newton-Raphson         CNVNR           .... off
 SOSCF                  CNVSOSCF        .... on
   Start iteration      SOSCFMaxIt      ....   150
   Startup grad/error   SOSCFStart      ....  0.003300
 Level Shifting         CNVShift        .... on
   Level shift para.    LevelShift      ....    0.2500
   Turn off err/grad.   ShiftErr        ....    0.0010
 Zerner damping         CNVZerner       .... off
 Static damping         CNVDamp         .... on
   Fraction old density DampFac         ....    0.7000
   Max. Damping (<1)    DampMax         ....    0.9800
   Min. Damping (>=0)   DampMin         ....    0.0000
   Turn off err/grad.   DampErr         ....    0.1000
 Fernandez-Rico         CNVRico         .... off

SCF Procedure:
 Maximum # iterations   MaxIter         ....   125
 SCF integral mode      SCFMode         .... Conventional
 Integral Buffer length BufferLength    .... 1048576
 Integral index format  IndFormat       ....     0
 Integral value format  ValFormat       ....     0
 Integral Storage       Thresh          ....  1.000e-08 Eh

Convergence Tolerance:
 Convergence Check Mode ConvCheckMode   .... Total+1el-Energy
 Energy Change          TolE            ....  1.000e-06 Eh
 1-El. energy change                    ....  1.000e-03 Eh
 Orbital Gradient       TolG            ....  5.000e-05
 Orbital Rotation angle TolX            ....  5.000e-05
 DIIS Error             TolErr          ....  1.000e-06


Diagonalization of the overlap matrix:
Smallest eigenvalue                        ... 1.693e-01
Time for diagonalization                   ...    0.003 sec
Threshold for overlap eigenvalues          ... 1.000e-08
Number of eigenvalues below threshold      ... 0
Time for construction of square roots      ...    0.001 sec
Total time needed                          ...    0.004 sec

-------------------------------
INITIAL GUESS: EXTENDED HUECKEL
-------------------------------
EHT matrix was read from disk
EHT matrix was diagonalized
Initial density was built
                      ------------------
                      INITIAL GUESS DONE
                      ------------------

 InCore treatment chosen:
   Memory dedicated               ...    1024 MB
   Memory needed                  ...      0 MB
   Number of tiny    integrals    ...       0
   Number of small   integrals    ...       0
   Number of regular integrals    ...    7392

--------------
SCF ITERATIONS
--------------
ITER       Energy         Delta-E        Max-DP      RMS-DP      [F,P]     Damp
  0    -14.0324747104   0.000000000000 0.04188202  0.00144722  0.0858952 0.7000
  1    -14.0744834532  -0.042008742817 0.03951317  0.00136349  0.0615870 0.7000
                               ***Turning on DIIS***
  2    -14.1055319785  -0.031048525286 0.10015697  0.00349921  0.0404941 0.0000
  3    -14.1837174682  -0.078185489648 0.01823773  0.00071761  0.0193245 0.0000
  4    -14.1718805026   0.011836965514 0.01143381  0.00049749  0.0067916 0.0000
  5    -14.1894802586  -0.017599755952 0.00778061  0.00033702  0.0039250 0.0000
  6    -14.1913039699  -0.001823711341 0.00586929  0.00024000  0.0021185 0.0000
                      *** Initiating the SOSCF procedure ***
                           *** Shutting down DIIS ***
                      *** Re-Reading the Fockian *** 
                      *** Removing any level shift *** 
ITER      Energy       Delta-E        Grad      Rot      Max-DP    RMS-DP
  7    -14.18750767   0.0037962956  0.003020  0.003020  0.003496  0.000136
  8    -14.18506538   0.0024422922  0.000833  0.002324  0.001717  0.000063
  9    -14.18508036  -0.0000149773  0.000364  0.002265  0.001930  0.000067
 10    -14.18508589  -0.0000055354  0.000034  0.000069  0.000116  0.000004
                 **** Energy Check signals convergence ****
              ***Rediagonalizing the Fockian in SOSCF/NRSCF***

               *****************************************************
               *                     SUCCESS                       *
               *           SCF CONVERGED AFTER  11 CYCLES          *
               *****************************************************


----------------
TOTAL SCF ENERGY
----------------

Total Energy       :          -14.18508595 Eh            -385.99581 eV

Components:
Nuclear Repulsion  :          832.95603076 Eh           22665.88591 eV
Electronic Energy  :         -847.14111670 Eh          -23051.88172 eV

One Electron Energy:        -1603.69822346 Eh          -43638.84722 eV
Two Electron Energy:          756.55710676 Eh           20586.96550 eV


---------------
SCF CONVERGENCE
---------------

  Last Energy change         ...   -5.2745e-08  Tolerance :   1.0000e-06
  Last MAX-Density change    ...    5.4382e-05  Tolerance :   1.0000e-05
  Last RMS-Density change    ...    1.4706e-06  Tolerance :   1.0000e-06
  Last Orbital Gradient      ...    1.4084e-05  Tolerance :   5.0000e-05
  Last Orbital Rotation      ...    3.0157e-05  Tolerance :   5.0000e-05

             **** THE GBW FILE WAS UPDATED (/Users/mattyjones/GoogleDrive/Boise/Code/MorphCT/tests/output_EZ/donor_polymer/chromophores/input_orca/pair/00016-00018.gbw) ****
             **** DENSITY FILE WAS UPDATED (/Users/mattyjones/GoogleDrive/Boise/Code/MorphCT/tests/output_EZ/donor_polymer/chromophores/input_orca/pair/00016-00018.scfp.tmp) ****
             **** ENERGY FILE WAS UPDATED (/Users/mattyjones/GoogleDrive/Boise/Code/MorphCT/tests/output_EZ/donor_polymer/chromophores/input_orca/pair/00016-00018.en.tmp) ****
----------------
ORBITAL ENERGIES
----------------

  NO   OCC          E(Eh)            E(eV) 
   0   2.0000      -1.565625       -42.6028 
   1   2.0000      -1.558135       -42.3990 
   2   2.0000      -1.415624       -38.5211 
   3   2.0000      -1.413576       -38.4654 
   4   2.0000      -1.293129       -35.1878 
   5   2.0000      -1.285115       -34.9698 
   6   2.0000      -1.192848       -32.4590 
   7   2.0000      -1.173585       -31.9349 
   8   2.0000      -1.120929       -30.5020 
   9   2.0000      -1.115505       -30.3544 
  10   2.0000      -1.053439       -28.6655 
  11   2.0000      -1.036944       -28.2167 
  12   2.0000      -0.958452       -26.0808 
  13   2.0000      -0.946439       -25.7539 
  14   2.0000      -0.907106       -24.6836 
  15   2.0000      -0.885727       -24.1019 
  16   2.0000      -0.867311       -23.6007 
  17   2.0000      -0.862845       -23.4792 
  18   2.0000      -0.835339       -22.7307 
  19   2.0000      -0.834781       -22.7155 
  20   2.0000      -0.784752       -21.3542 
  21   2.0000      -0.778457       -21.1829 
  22   2.0000      -0.743953       -20.2440 
  23   2.0000      -0.735522       -20.0146 
  24   2.0000      -0.690823       -18.7982 
  25   2.0000      -0.685672       -18.6581 
  26   2.0000      -0.667891       -18.1742 
  27   2.0000      -0.665279       -18.1032 
  28   2.0000      -0.655906       -17.8481 
  29   2.0000      -0.645908       -17.5761 
  30   2.0000      -0.619448       -16.8560 
  31   2.0000      -0.615631       -16.7522 
  32   2.0000      -0.605189       -16.4680 
  33   2.0000      -0.580579       -15.7984 
  34   2.0000      -0.576696       -15.6927 
  35   2.0000      -0.576215       -15.6796 
  36   2.0000      -0.574462       -15.6319 
  37   2.0000      -0.563126       -15.3234 
  38   2.0000      -0.552577       -15.0364 
  39   2.0000      -0.551812       -15.0156 
  40   2.0000      -0.535391       -14.5687 
  41   2.0000      -0.531515       -14.4633 
  42   2.0000      -0.526142       -14.3171 
  43   2.0000      -0.516887       -14.0652 
  44   2.0000      -0.505774       -13.7628 
  45   2.0000      -0.499545       -13.5933 
  46   2.0000      -0.495238       -13.4761 
  47   2.0000      -0.494831       -13.4650 
  48   2.0000      -0.491083       -13.3631 
  49   2.0000      -0.486554       -13.2398 
  50   2.0000      -0.481898       -13.1131 
  51   2.0000      -0.478243       -13.0137 
  52   2.0000      -0.473737       -12.8910 
  53   2.0000      -0.466590       -12.6966 
  54   2.0000      -0.462729       -12.5915 
  55   2.0000      -0.459641       -12.5075 
  56   2.0000      -0.438131       -11.9222 
  57   2.0000      -0.436365       -11.8741 
  58   2.0000      -0.357305        -9.7228 
  59   2.0000      -0.351110        -9.5542 
  60   2.0000      -0.305816        -8.3217 
  61   2.0000      -0.305165        -8.3040 
  62   0.0000       0.006836         0.1860 
  63   0.0000       0.007274         0.1979 
  64   0.0000       0.067613         1.8398 
  65   0.0000       0.068933         1.8758 
  66   0.0000       0.076714         2.0875 
  67   0.0000       0.077867         2.1189 
  68   0.0000       0.086811         2.3622 
  69   0.0000       0.089092         2.4243 
  70   0.0000       0.104985         2.8568 
  71   0.0000       0.107062         2.9133 
  72   0.0000       0.107594         2.9278 
  73   0.0000       0.108237         2.9453 
  74   0.0000       0.122387         3.3303 
  75   0.0000       0.126276         3.4361 
  76   0.0000       0.140926         3.8348 
  77   0.0000       0.142428         3.8757 
  78   0.0000       0.154865         4.2141 
  79   0.0000       0.158297         4.3075 
  80   0.0000       0.164960         4.4888 
  81   0.0000       0.166155         4.5213 
  82   0.0000       0.168010         4.5718 
  83   0.0000       0.174262         4.7419 
  84   0.0000       0.202427         5.5083 
  85   0.0000       0.203370         5.5340 
  86   0.0000       0.229358         6.2411 
  87   0.0000       0.230662         6.2766 
  88   0.0000       0.234753         6.3879 
  89   0.0000       0.235694         6.4136 
  90   0.0000       0.237197         6.4545 
  91   0.0000       0.238406         6.4874 
  92   0.0000       0.238950         6.5022 
  93   0.0000       0.239238         6.5100 
  94   0.0000       0.240387         6.5413 
  95   0.0000       0.240512         6.5447 
  96   0.0000       0.242685         6.6038 
  97   0.0000       0.243921         6.6374 
  98   0.0000       0.244768         6.6605 
  99   0.0000       0.245877         6.6906 
 100   0.0000       0.252184         6.8623 
 101   0.0000       0.255664         6.9570 
 102   0.0000       0.262385         7.1399 
 103   0.0000       0.262830         7.1520 
 104   0.0000       0.266437         7.2501 
 105   0.0000       0.267094         7.2680 
 106   0.0000       0.285588         7.7712 
 107   0.0000       0.285850         7.7784 
 108   0.0000       0.298687         8.1277 
 109   0.0000       0.309576         8.4240 
 110   0.0000       0.309878         8.4322 
 111   0.0000       0.310992         8.4625 
 112   0.0000       0.337790         9.1917 
 113   0.0000       0.338756         9.2180 
 114   0.0000       0.348053         9.4710 
 115   0.0000       0.348913         9.4944 
 116   0.0000       0.419180        11.4065 
 117   0.0000       0.421078        11.4581 
 118   0.0000       0.424992        11.5646 
 119   0.0000       0.427862        11.6427 
-------
TIMINGS
-------

Total SCF time: 0 days 0 hours 0 min 0 sec 

Total time                  ....       0.125 sec
Sum of individual times     ....       0.089 sec  ( 71.8%)

Fock matrix formation       ....       0.045 sec  ( 35.8%)
Diagonalization             ....       0.022 sec  ( 17.5%)
Density matrix formation    ....       0.005 sec  (  4.0%)
Population analysis         ....       0.000 sec  (  0.0%)
Initial guess               ....       0.003 sec  (  2.2%)
Orbital Transformation      ....       0.000 sec  (  0.0%)
Orbital Orthonormalization  ....       0.000 sec  (  0.0%)
DIIS solution               ....       0.010 sec  (  8.1%)
SOSCF solution              ....       0.005 sec  (  4.2%)

-------------------------   --------------------
FINAL SINGLE POINT ENERGY       -14.185085947517
-------------------------   --------------------


                            ***************************************
                            *     ORCA property calculations      *
                            ***************************************

                                    ---------------------
                                    Active property flags
                                    ---------------------
   (+) Dipole Moment


------------------------------------------------------------------------------
                       ORCA ELECTRIC PROPERTIES CALCULATION
------------------------------------------------------------------------------

Dipole Moment Calculation                       ... on
Quadrupole Moment Calculation                   ... off
Polarizability Calculation                      ... off
GBWName                                         ... /Users/mattyjones/GoogleDrive/Boise/Code/MorphCT/tests/output_EZ/donor_polymer/chromophores/input_orca/pair/00016-00018.gbw
Electron density file                           ... /Users/mattyjones/GoogleDrive/Boise/Code/MorphCT/tests/output_EZ/donor_polymer/chromophores/input_orca/pair/00016-00018.scfp.tmp

-------------
DIPOLE MOMENT
-------------
                                X             Y             Z
Electronic contribution:   -156.57555    -116.20339    -168.76610
Nuclear contribution   :     83.42059      62.93976      90.88243
                        -----------------------------------------
Total Dipole Moment    :    -73.15496     -53.26363     -77.88367
                        -----------------------------------------
Magnitude (a.u.)       :    119.39233
Magnitude (Debye)      :    303.47119


Timings for individual modules:

Sum of individual times         ...        0.203 sec (=   0.003 min)
STO integral calculation        ...        0.041 sec (=   0.001 min)  20.1 %
SCF iterations                  ...        0.163 sec (=   0.003 min)  79.9 %
                             ****ORCA TERMINATED NORMALLY****
TOTAL RUN TIME: 0 days 0 hours 0 minutes 0 seconds 648 msec

