
                                 *****************
                                 * O   R   C   A *
                                 *****************

           --- An Ab Initio, DFT and Semiempirical electronic structure package ---

                  #######################################################
                  #                        -***-                        #
                  #  Department of molecular theory and spectroscopy    #
                  #              Directorship: Frank Neese              #
                  # Max Planck Institute for Chemical Energy Conversion #
                  #                  D-45470 Muelheim/Ruhr              #
                  #                       Germany                       #
                  #                                                     #
                  #                  All rights reserved                #
                  #                        -***-                        #
                  #######################################################


                         Program Version 3.0.3 - RELEASE   -


 With contributions from (in alphabetic order):
   Ute Becker             : Parallelization
   Dmytro Bykov           : SCF Hessian
   Dmitry Ganyushin       : Spin-Orbit,Spin-Spin,Magnetic field MRCI
   Andreas Hansen         : Spin unrestricted coupled pair/coupled cluster methods
   Dimitrios Liakos       : Extrapolation schemes; parallel MDCI
   Robert Izsak           : Overlap fitted RIJCOSX, COSX-SCS-MP3
   Christian Kollmar      : KDIIS, OOCD, Brueckner-CCSD(T), CCSD density
   Simone Kossmann        : Meta GGA functionals, TD-DFT gradient, OOMP2, MP2 Hessian
   Taras Petrenko         : DFT Hessian,TD-DFT gradient, ASA and ECA modules, normal mode analysis, Resonance Raman, ABS, FL, XAS/XES, NRVS
   Christoph Reimann      : Effective Core Potentials
   Michael Roemelt        : Restricted open shell CIS
   Christoph Riplinger    : Improved optimizer, TS searches, QM/MM, DLPNO-CCSD
   Barbara Sandhoefer     : DKH picture change effects
   Igor Schapiro          : Molecular dynamics
   Kantharuban Sivalingam : CASSCF convergence, NEVPT2
   Boris Wezisla          : Elementary symmetry handling
   Frank Wennmohs         : Technical directorship


 We gratefully acknowledge several colleagues who have allowed us to
 interface, adapt or use parts of their codes:
   Stefan Grimme, W. Hujo, H. Kruse, T. Risthaus : VdW corrections, initial TS optimization,
                                                   DFT functionals, gCP
   Ed Valeev                                     : LibInt (2-el integral package), F12 methods
   Garnet Chan, S. Sharma, R. Olivares           : DMRG
   Ulf Ekstrom                                   : XCFun DFT Library
   Mihaly Kallay                                 : mrcc  (arbitrary order and MRCC methods)
   Andreas Klamt, Michael Diedenhofen            : otool_cosmo (COSMO solvation model)
   Frank Weinhold                                : gennbo (NPA and NBO analysis)
   Christopher J. Cramer and Donald G. Truhlar   : smd solvation model


 Your calculation uses the libint2 library for the computation of 2-el integrals
 For citations please refer to: http://libint.valeyev.net

 This ORCA versions uses:
   CBLAS   interface :  Fast vector & matrix operations
   LAPACKE interface :  Fast linear algebra routines
   SCALAPACK package :  Parallel linear algebra routines


leaving
================================================================================
                                        WARNINGS
                       Please study these warnings very carefully!
================================================================================
Now building the actual basis set

WARNING: Direct SCF is incompatible with Method<>HF and Method<>DFT
  ===> : conventional SCF is chosen

WARNING: The NDO methods need Guess=HUECKEL or Guess=HCORE or Guess=MOREAD
  ===> : Guess is set to Hueckel

WARNING: The NDO methods need %rel::SOCType==1
  ===> : %rel::SOCType is set to 1

WARNING: The NDO methods cannot have frozencore=1
  ===> : %method FrozenCore=0 end


INFO   : the flag for use of LIBINT has been found!

================================================================================
                                       INPUT FILE
================================================================================
NAME = /Users/mattyjones/GoogleDrive/Boise/Code/MorphCT/tests/output_EZ/donor_polymer/chromophores/input_orca/pair/00013-00022.inp
|  1> # ================================================================
|  2> # Orca input file made by Matty Jones
|  3> # ================================================================
|  4> ! ZINDO/S 
|  5> ! NOPOP
|  6> ! NOMOPRINT
|  7> * xyz 0   1
|  8>  C  -18.62240  -8.21016  7.99544
|  9>  C  -17.23728  -8.04161  8.02602
| 10>  C  -16.60941  -8.57848  9.19299
| 11>  C  -17.50326  -9.17396  10.08840
| 12>  S  -19.00229  -9.00723  9.39881
| 13>  H  -16.65577  -7.63219  7.13380
| 14>  C  -15.01050  -8.44041  9.29774
| 15>  C  -14.53735  -6.83260  8.94102
| 16>  C  -12.90361  -6.43101  8.95329
| 17>  H  -12.84375  -5.34549  9.36370
| 18>  H  -12.38260  -7.13069  9.71462
| 19>  H  -14.93763  -6.58504  7.89214
| 20>  H  -15.06630  -6.15831  9.71454
| 21>  H  -14.63726  -8.63436  10.38002
| 22>  H  -14.47357  -9.15237  8.57008
| 23>  C  -12.07593  -6.47145  7.54494
| 24>  C  -12.89096  -6.41013  6.06007
| 25>  C  -13.33509  -7.88777  5.39028
| 26>  H  -12.93053  -7.95039  4.30650
| 27>  H  -14.48970  -7.96986  5.37631
| 28>  H  -12.89277  -8.75193  6.01829
| 29>  H  -13.83232  -5.75909  6.17998
| 30>  H  -12.17741  -5.89436  5.30937
| 31>  H  -11.46046  -7.45469  7.52776
| 32>  H  -11.33190  -5.58271  7.53931
| 33>  C  12.17287  3.98718  -9.51608
| 34>  C  13.05869  4.96769  -9.06684
| 35>  C  12.47245  5.92033  -8.17631
| 36>  C  11.11690  5.69092  -7.92109
| 37>  S  10.72059  4.34046  -8.79833
| 38>  H  14.15972  5.00803  -9.35248
| 39>  C  13.31932  7.15809  -7.56474
| 40>  C  14.25006  8.07148  -8.62732
| 41>  C  14.93245  9.34041  -7.74447
| 42>  H  14.98605  9.03882  -6.63210
| 43>  H  14.18578  10.22718  -7.82857
| 44>  H  15.07183  7.41754  -9.09330
| 45>  H  13.56687  8.50035  -9.44771
| 46>  H  12.73962  7.95990  -6.97786
| 47>  H  14.07195  6.69329  -6.79844
| 48>  C  16.37345  9.82657  -8.30384
| 49>  C  17.68880  9.06827  -7.55407
| 50>  C  17.33086  8.03588  -6.26995
| 51>  H  16.85022  8.64200  -5.40972
| 52>  H  18.31155  7.54863  -5.89257
| 53>  H  16.60391  7.21020  -6.62599
| 54>  H  18.23751  8.44699  -8.35526
| 55>  H  18.39068  9.89260  -7.15832
| 56>  H  16.48379  10.96623  -8.13657
| 57>  H  16.44533  9.61114  -9.43863
| 58>  H  -19.29061  -7.89505  7.23531
| 59>  H  -17.27129  -9.63533  11.01410
| 60>  H  12.38403  3.18565  -10.17681
| 61>  H  10.47667  6.26085  -7.29748
| 62> *
| 63> 
| 64>                          ****END OF INPUT****
================================================================================

                       ****************************
                       * Single Point Calculation *
                       ****************************

---------------------------------
CARTESIAN COORDINATES (ANGSTROEM)
---------------------------------
  C    -18.622400   -8.210160    7.995440
  C    -17.237280   -8.041610    8.026020
  C    -16.609410   -8.578480    9.192990
  C    -17.503260   -9.173960   10.088400
  S    -19.002290   -9.007230    9.398810
  H    -16.655770   -7.632190    7.133800
  C    -15.010500   -8.440410    9.297740
  C    -14.537350   -6.832600    8.941020
  C    -12.903610   -6.431010    8.953290
  H    -12.843750   -5.345490    9.363700
  H    -12.382600   -7.130690    9.714620
  H    -14.937630   -6.585040    7.892140
  H    -15.066300   -6.158310    9.714540
  H    -14.637260   -8.634360   10.380020
  H    -14.473570   -9.152370    8.570080
  C    -12.075930   -6.471450    7.544940
  C    -12.890960   -6.410130    6.060070
  C    -13.335090   -7.887770    5.390280
  H    -12.930530   -7.950390    4.306500
  H    -14.489700   -7.969860    5.376310
  H    -12.892770   -8.751930    6.018290
  H    -13.832320   -5.759090    6.179980
  H    -12.177410   -5.894360    5.309370
  H    -11.460460   -7.454690    7.527760
  H    -11.331900   -5.582710    7.539310
  C     12.172870    3.987180   -9.516080
  C     13.058690    4.967690   -9.066840
  C     12.472450    5.920330   -8.176310
  C     11.116900    5.690920   -7.921090
  S     10.720590    4.340460   -8.798330
  H     14.159720    5.008030   -9.352480
  C     13.319320    7.158090   -7.564740
  C     14.250060    8.071480   -8.627320
  C     14.932450    9.340410   -7.744470
  H     14.986050    9.038820   -6.632100
  H     14.185780   10.227180   -7.828570
  H     15.071830    7.417540   -9.093300
  H     13.566870    8.500350   -9.447710
  H     12.739620    7.959900   -6.977860
  H     14.071950    6.693290   -6.798440
  C     16.373450    9.826570   -8.303840
  C     17.688800    9.068270   -7.554070
  C     17.330860    8.035880   -6.269950
  H     16.850220    8.642000   -5.409720
  H     18.311550    7.548630   -5.892570
  H     16.603910    7.210200   -6.625990
  H     18.237510    8.446990   -8.355260
  H     18.390680    9.892600   -7.158320
  H     16.483790   10.966230   -8.136570
  H     16.445330    9.611140   -9.438630
  H    -19.290610   -7.895050    7.235310
  H    -17.271290   -9.635330   11.014100
  H     12.384030    3.185650  -10.176810
  H     10.476670    6.260850   -7.297480

----------------------------
CARTESIAN COORDINATES (A.U.)
----------------------------
  NO LB      ZA    FRAG    MASS        X           Y           Z
   0 C     4.0000    0    12.011        -35.191235956335113        -15.514953915674903         15.109191920199333
   1 C     4.0000    0    12.011        -32.573738493718110        -15.196440575802477         15.166979745374645
   2 C     4.0000    0    12.011        -31.387236146012977        -16.210977845320780         17.372233451876728
   3 C     4.0000    0    12.011        -33.076367850818492        -17.336271963548203         19.064313129451154
   4 S     6.0000    0    32.060        -35.909124017350457        -17.021197925239516         17.761176884760399
   5 H     1.0000    0     1.008        -31.474843849581568        -14.422748902052437         13.480928294167425
   6 C     4.0000    0    12.011        -28.365734133224947        -15.950063358010272         17.570182264404977
   7 C     4.0000    0    12.011        -27.471610212960108        -12.911742782630345         16.896079157912588
   8 C     4.0000    0    12.011        -24.384289038927601        -12.152847664508908         16.919266097575804
   9 H     1.0000    0     1.008        -24.271170032551076        -10.101512151614711         17.694828600198424
  10 H     1.0000    0     1.008        -23.399722825893292        -13.475051245890931         18.357971295114069
  11 H     1.0000    0     1.008        -28.228029789846108        -12.443922180916799         14.913983210565268
  12 H     1.0000    0     1.008        -28.471180851497753        -11.637519347788583         18.357820117023355
  13 H     1.0000    0     1.008        -27.660412751000180        -16.316575741684296         19.615395064625272
  14 H     1.0000    0     1.008        -27.351083480138612        -17.295472776316846         16.195104145795842
  15 C     4.0000    0    12.011        -22.820200512403659        -12.229268189364683         14.257870296867809
  16 C     4.0000    0    12.011        -24.360384003333497        -12.113390182832632         11.451872652392160
  17 C     4.0000    0    12.011        -25.199668071191944        -14.905725107360031         10.186152985153043
  18 H     1.0000    0     1.008        -24.435160466452761        -15.024059757866180          8.138105595731870
  19 H     1.0000    0     1.008        -27.381564762678760        -15.060852725693627         10.159753511062165
  20 H     1.0000    0     1.008        -24.363804407635897        -16.538750843249421         11.372919894516931
  21 H     1.0000    0     1.008        -26.139296596761607        -10.883102880604541         11.678469713110657
  22 H     1.0000    0     1.008        -23.011969920473991        -11.138726134740068         10.033255243657477
  23 H     1.0000    0     1.008        -21.657130768759146        -14.087322513281416         14.225404801887041
  24 H     1.0000    0     1.008        -21.414187576982229        -10.549792985103510         14.247231138733833
  25 C     4.0000    0    12.011         23.003390563825985          7.534678246648136        -17.982785068485345
  26 C     4.0000    0    12.011         24.677347767776112          9.387573618219262        -17.133844500082560
  27 C     4.0000    0    12.011         23.569514719026117         11.187802322438003        -15.450986686041670
  28 C     4.0000    0    12.011         21.007896458189162         10.754280250055130        -14.968690782142287
  29 S     6.0000    0    32.060         20.258979094054830          8.202280695239835        -16.626434135863366
  30 H     1.0000    0     1.008         26.757992933007426          9.463805170461645        -17.673625872975826
  31 C     4.0000    0    12.011         25.169867090060006         13.526829741960372        -14.295286874319448
  32 C     4.0000    0    12.011         26.928710791945871         15.252886695422703        -16.303272069701492
  33 C     4.0000    0    12.011         28.218241008472393         17.650816878539398        -14.634927352369115
  34 H     1.0000    0     1.008         28.319530329250576         17.080894373810086        -12.532852692779134
  35 H     1.0000    0     1.008         26.807239196057413         19.326569322316747        -14.793853320231893
  36 H     1.0000    0     1.008         28.481631037018339         14.017119187406241        -17.183846653586116
  37 H     1.0000    0     1.008         25.637668794512212         16.063333542477508        -17.853584492709150
  38 H     1.0000    0     1.008         24.074392850225856         15.042031053399771        -13.186244400843744
  39 H     1.0000    0     1.008         26.592131670233154         12.648485034913774        -12.847189737895595
  40 C     4.0000    0    12.011         30.941336367452916         18.569526135806555        -15.691983459900644
  41 C     4.0000    0    12.011         33.426987637706240         17.136546808454067        -14.275123496470510
  42 C     4.0000    0    12.011         32.750579065330463         15.185612445055108        -11.848488373379551
  43 H     1.0000    0     1.008         31.842301096322554         16.331013249347457        -10.222889261196475
  44 H     1.0000    0     1.008         34.603814587605697         14.264843386301978        -11.135343524960350
  45 H     1.0000    0     1.008         31.376842652276409         13.625303370799010        -12.521306466100874
  46 H     1.0000    0     1.008         34.463899264650166         15.962497755971473        -15.789153177706876
  47 H     1.0000    0     1.008         34.753348616582883         18.694304752429375        -13.527264378971173
  48 H     1.0000    0     1.008         31.149848749069786         20.723171421591246        -15.375888969479639
  49 H     1.0000    0     1.008         31.077169881959176         18.162422434775898        -17.836425779413144
  50 H     1.0000    0     1.008        -36.453969856282640        -14.919482313614978         13.672754394021771
  51 H     1.0000    0     1.008        -32.638008079532774        -18.208134909955454         20.813632611622054
  52 H     1.0000    0     1.008         23.402425134264796          6.020006058526235        -19.231383816951134
  53 H     1.0000    0     1.008         19.798037095468761         11.831291865560868        -13.790238667767657

--------------------------------
INTERNAL COORDINATES (ANGSTROEM)
--------------------------------
 C      0   0   0   0.000000     0.000     0.000
 C      1   0   0   1.395672     0.000     0.000
 C      2   1   0   1.429779   114.101     0.000
 C      3   2   1   1.398329   113.693     0.000
 S      1   2   3   1.658036   105.480     0.000
 H      2   1   3   1.140980   122.141   172.559
 C      3   2   1   1.608275   117.226   179.313
 C      7   3   2   1.713527   109.969    48.184
 C      8   7   3   1.682418   119.379   181.146
 H      9   8   7   1.162056   105.996   215.492
 H      9   8   7   1.157854   107.308   330.714
 H      8   7   3   1.149634   107.208   302.935
 H      8   7   3   1.154465   106.382    59.471
 H      7   3   2   1.161144   111.465   164.443
 H      7   3   2   1.150943   111.686   287.461
 C      9   8   7   1.634056   118.664    94.557
 C     16   9   8   1.694955   120.703    19.853
 C     17  16   9   1.682049   116.361   269.667
 H     18  17  16   1.158520   109.135   233.450
 H     18  17  16   1.157609   109.297   113.772
 H     18  17  16   1.156208   109.833   353.524
 H     17  16   9   1.150822   108.815    32.970
 H     17  16   9   1.157032   106.737   150.058
 H     16   9   8   1.160112   107.605   258.434
 H     16   9   8   1.159082   108.080   142.019
 C     23  17  16  30.172420   164.259    30.893
 C     26  23  17   1.395670   125.743   287.575
 C     27  26  23   1.429771   114.100   332.513
 C     28  27  26   1.398314   113.694     0.000
 S     26  23  17   1.658038    31.809   230.020
 H     27  26  23   1.138194   123.924   151.097
 C     28  27  26   1.619647   122.004   181.322
 C     32  28  27   1.682152   117.759    47.667
 C     33  32  28   1.689753   107.528   176.291
 H     34  33  32   1.153775   109.038    24.001
 H     34  33  32   1.162304   106.004   268.656
 H     33  32  28   1.148948   110.053   296.725
 H     33  32  28   1.150529   108.921    57.814
 H     32  28  27   1.150382   117.503   171.560
 H     32  28  27   1.170345   106.259   289.284
 C     34  33  32   1.620410   113.833   149.468
 C     41  34  33   1.693316   113.802   266.872
 C     42  41  34   1.686094   116.520   355.033
 H     43  42  41   1.156889   109.494   296.557
 H     43  42  41   1.158266   109.024   177.069
 H     43  42  41   1.156273   109.645    57.318
 H     42  41  34   1.152813   107.659   115.773
 H     42  41  34   1.152724   107.743   233.812
 H     41  34  33   1.157143   109.292   146.524
 H     41  34  33   1.157292   109.747    27.516
 H      1   2   3   1.059998   127.260   180.000
 H      4   3   2   1.059997   127.206   180.000
 H     26  23  17   1.060001   102.674    85.456
 H     29  28  27   1.060002   127.206   180.000

---------------------------
INTERNAL COORDINATES (A.U.)
---------------------------
 C      0   0   0   0.000000     0.000     0.000
 C      1   0   0   2.637439     0.000     0.000
 C      2   1   0   2.701891   114.101     0.000
 C      3   2   1   2.642458   113.693     0.000
 S      1   2   3   3.133235   105.480     0.000
 H      2   1   3   2.156140   122.141   172.559
 C      3   2   1   3.039200   117.226   179.313
 C      7   3   2   3.238096   109.969    48.184
 C      8   7   3   3.179310   119.379   181.146
 H      9   8   7   2.195967   105.996   215.492
 H      9   8   7   2.188028   107.308   330.714
 H      8   7   3   2.172494   107.208   302.935
 H      8   7   3   2.181622   106.382    59.471
 H      7   3   2   2.194244   111.465   164.443
 H      7   3   2   2.174967   111.686   287.461
 C      9   8   7   3.087918   118.664    94.557
 C     16   9   8   3.203001   120.703    19.853
 C     17  16   9   3.178613   116.361   269.667
 H     18  17  16   2.189286   109.135   233.450
 H     18  17  16   2.187564   109.297   113.772
 H     18  17  16   2.184916   109.833   353.524
 H     17  16   9   2.174737   108.815    32.970
 H     17  16   9   2.186473   106.737   150.058
 H     16   9   8   2.192294   107.605   258.434
 H     16   9   8   2.190348   108.080   142.019
 C     23  17  16  57.017611   164.259    30.893
 C     26  23  17   2.637433   125.743   287.575
 C     27  26  23   2.701875   114.100   332.513
 C     28  27  26   2.642430   113.694     0.000
 S     26  23  17   3.133237    31.809   230.020
 H     27  26  23   2.150874   123.924   151.097
 C     28  27  26   3.060689   122.004   181.322
 C     32  28  27   3.178806   117.759    47.667
 C     33  32  28   3.193169   107.528   176.291
 H     34  33  32   2.180319   109.038    24.001
 H     34  33  32   2.196436   106.004   268.656
 H     33  32  28   2.171196   110.053   296.725
 H     33  32  28   2.174185   108.921    57.814
 H     32  28  27   2.173908   117.503   171.560
 H     32  28  27   2.211631   106.259   289.284
 C     34  33  32   3.062130   113.833   149.468
 C     41  34  33   3.199904   113.802   266.872
 C     42  41  34   3.186257   116.520   355.033
 H     43  42  41   2.186203   109.494   296.557
 H     43  42  41   2.188806   109.024   177.069
 H     43  42  41   2.185040   109.645    57.318
 H     42  41  34   2.178500   107.659   115.773
 H     42  41  34   2.178333   107.743   233.812
 H     41  34  33   2.186683   109.292   146.524
 H     41  34  33   2.186965   109.747    27.516
 H      1   2   3   2.003107   127.260   180.000
 H      4   3   2   2.003103   127.206   180.000
 H     26  23  17   2.003112   102.674    85.456
 H     29  28  27   2.003113   127.206   180.000

----------------------------
SLATER BASIS SET DIM= 120
----------------------------
  0 C     2 shells
 l=0 nsto= 1
    2       1.625000000000        1.000000000000
 l=1 nsto= 1
    2       1.625000000000        1.000000000000
  1 C     2 shells
 l=0 nsto= 1
    2       1.625000000000        1.000000000000
 l=1 nsto= 1
    2       1.625000000000        1.000000000000
  2 C     2 shells
 l=0 nsto= 1
    2       1.625000000000        1.000000000000
 l=1 nsto= 1
    2       1.625000000000        1.000000000000
  3 C     2 shells
 l=0 nsto= 1
    2       1.625000000000        1.000000000000
 l=1 nsto= 1
    2       1.625000000000        1.000000000000
  4 S     2 shells
 l=0 nsto= 1
    3       1.925000000000        1.000000000000
 l=1 nsto= 1
    3       1.925000000000        1.000000000000
  5 H     1 shells
 l=0 nsto= 1
    1       1.200000000000        1.000000000000
  6 C     2 shells
 l=0 nsto= 1
    2       1.625000000000        1.000000000000
 l=1 nsto= 1
    2       1.625000000000        1.000000000000
  7 C     2 shells
 l=0 nsto= 1
    2       1.625000000000        1.000000000000
 l=1 nsto= 1
    2       1.625000000000        1.000000000000
  8 C     2 shells
 l=0 nsto= 1
    2       1.625000000000        1.000000000000
 l=1 nsto= 1
    2       1.625000000000        1.000000000000
  9 H     1 shells
 l=0 nsto= 1
    1       1.200000000000        1.000000000000
 10 H     1 shells
 l=0 nsto= 1
    1       1.200000000000        1.000000000000
 11 H     1 shells
 l=0 nsto= 1
    1       1.200000000000        1.000000000000
 12 H     1 shells
 l=0 nsto= 1
    1       1.200000000000        1.000000000000
 13 H     1 shells
 l=0 nsto= 1
    1       1.200000000000        1.000000000000
 14 H     1 shells
 l=0 nsto= 1
    1       1.200000000000        1.000000000000
 15 C     2 shells
 l=0 nsto= 1
    2       1.625000000000        1.000000000000
 l=1 nsto= 1
    2       1.625000000000        1.000000000000
 16 C     2 shells
 l=0 nsto= 1
    2       1.625000000000        1.000000000000
 l=1 nsto= 1
    2       1.625000000000        1.000000000000
 17 C     2 shells
 l=0 nsto= 1
    2       1.625000000000        1.000000000000
 l=1 nsto= 1
    2       1.625000000000        1.000000000000
 18 H     1 shells
 l=0 nsto= 1
    1       1.200000000000        1.000000000000
 19 H     1 shells
 l=0 nsto= 1
    1       1.200000000000        1.000000000000
 20 H     1 shells
 l=0 nsto= 1
    1       1.200000000000        1.000000000000
 21 H     1 shells
 l=0 nsto= 1
    1       1.200000000000        1.000000000000
 22 H     1 shells
 l=0 nsto= 1
    1       1.200000000000        1.000000000000
 23 H     1 shells
 l=0 nsto= 1
    1       1.200000000000        1.000000000000
 24 H     1 shells
 l=0 nsto= 1
    1       1.200000000000        1.000000000000
 25 C     2 shells
 l=0 nsto= 1
    2       1.625000000000        1.000000000000
 l=1 nsto= 1
    2       1.625000000000        1.000000000000
 26 C     2 shells
 l=0 nsto= 1
    2       1.625000000000        1.000000000000
 l=1 nsto= 1
    2       1.625000000000        1.000000000000
 27 C     2 shells
 l=0 nsto= 1
    2       1.625000000000        1.000000000000
 l=1 nsto= 1
    2       1.625000000000        1.000000000000
 28 C     2 shells
 l=0 nsto= 1
    2       1.625000000000        1.000000000000
 l=1 nsto= 1
    2       1.625000000000        1.000000000000
 29 S     2 shells
 l=0 nsto= 1
    3       1.925000000000        1.000000000000
 l=1 nsto= 1
    3       1.925000000000        1.000000000000
 30 H     1 shells
 l=0 nsto= 1
    1       1.200000000000        1.000000000000
 31 C     2 shells
 l=0 nsto= 1
    2       1.625000000000        1.000000000000
 l=1 nsto= 1
    2       1.625000000000        1.000000000000
 32 C     2 shells
 l=0 nsto= 1
    2       1.625000000000        1.000000000000
 l=1 nsto= 1
    2       1.625000000000        1.000000000000
 33 C     2 shells
 l=0 nsto= 1
    2       1.625000000000        1.000000000000
 l=1 nsto= 1
    2       1.625000000000        1.000000000000
 34 H     1 shells
 l=0 nsto= 1
    1       1.200000000000        1.000000000000
 35 H     1 shells
 l=0 nsto= 1
    1       1.200000000000        1.000000000000
 36 H     1 shells
 l=0 nsto= 1
    1       1.200000000000        1.000000000000
 37 H     1 shells
 l=0 nsto= 1
    1       1.200000000000        1.000000000000
 38 H     1 shells
 l=0 nsto= 1
    1       1.200000000000        1.000000000000
 39 H     1 shells
 l=0 nsto= 1
    1       1.200000000000        1.000000000000
 40 C     2 shells
 l=0 nsto= 1
    2       1.625000000000        1.000000000000
 l=1 nsto= 1
    2       1.625000000000        1.000000000000
 41 C     2 shells
 l=0 nsto= 1
    2       1.625000000000        1.000000000000
 l=1 nsto= 1
    2       1.625000000000        1.000000000000
 42 C     2 shells
 l=0 nsto= 1
    2       1.625000000000        1.000000000000
 l=1 nsto= 1
    2       1.625000000000        1.000000000000
 43 H     1 shells
 l=0 nsto= 1
    1       1.200000000000        1.000000000000
 44 H     1 shells
 l=0 nsto= 1
    1       1.200000000000        1.000000000000
 45 H     1 shells
 l=0 nsto= 1
    1       1.200000000000        1.000000000000
 46 H     1 shells
 l=0 nsto= 1
    1       1.200000000000        1.000000000000
 47 H     1 shells
 l=0 nsto= 1
    1       1.200000000000        1.000000000000
 48 H     1 shells
 l=0 nsto= 1
    1       1.200000000000        1.000000000000
 49 H     1 shells
 l=0 nsto= 1
    1       1.200000000000        1.000000000000
 50 H     1 shells
 l=0 nsto= 1
    1       1.200000000000        1.000000000000
 51 H     1 shells
 l=0 nsto= 1
    1       1.200000000000        1.000000000000
 52 H     1 shells
 l=0 nsto= 1
    1       1.200000000000        1.000000000000
 53 H     1 shells
 l=0 nsto= 1
    1       1.200000000000        1.000000000000
------------------------------------------------------------------------------
                           ORCA NDO INTEGRAL CALCULATION
------------------------------------------------------------------------------

--------------
NDO PARAMETERS
--------------

Gamma integral treatment              ... Mataga-Nishimoto
Nuclear repulsuion treatment          ... Direct (ZA*ZB/RAB)
Interaction factors:
s-s (sigma) =    1.0000
s-p (sigma) =    1.0000
s-d (sigma) =    1.0000
p-p (sigma) =    1.2670  p-p(pi) =    0.5850
p-d (sigma) =    1.0000  p-d(pi) =    1.0000
d-d (sigma) =    1.0000  d-d(pi) =    1.0000 d-d (delta) =    1.0000

fGamma parameter for Mataga-Nishimoto gamma integrals:    1.2000

--------------------------
Parameters for Element H :
--------------------------
 One-electron parameters (in eV)
  U(s)  =   -13.060000 Beta(s) =    12.000000 Neff(s) =     1.000000
 One-center electron repulsion parameters (in eV)
  G(s,s)=    12.850000
--------------------------
Parameters for Element C :
--------------------------
 One-electron parameters (in eV)
  U(s)  =   -50.870766 Beta(s) =    17.000000 Neff(s) =     2.000000
  U(p)  =   -41.599980 Beta(p) =    17.000000 Neff(p) =     2.000000 
 One-center electron repulsion parameters (in eV)
  G(s,s)=    11.110000
  G(s,p)=    11.110000 G(p,p)  =    11.110000
 Slater-Condon parameters (in eV)
 F2(p,p)=     4.5098 G1(s,p)=    6.8977
--------------------------
Parameters for Element S :
--------------------------
 One-electron parameters (in eV)
  U(s)  =   -69.509597 Beta(s) =    15.000000 Neff(s) =     2.000000
  U(p)  =   -60.725746 Beta(p) =    15.000000 Neff(p) =     4.000000 
 One-center electron repulsion parameters (in eV)
  G(s,s)=    10.090000
  G(s,p)=    10.090000 G(p,p)  =    10.090000
 Slater-Condon parameters (in eV)
 F2(p,p)=     4.5377 G1(s,p)=    3.0756

 Number of atoms                    ....   54
 Number of basis functions          ....  120

 Overlap integrals                  .... done
 One electron matrix                .... done
 Nuclear repulsion                  .... done
 Integral list                      .... done
 Electron-electron repulsion        .... done
-------------------------------------------------------------------------------
                                 ORCA SCF
-------------------------------------------------------------------------------

------------
SCF SETTINGS
------------
Hamiltonian:
 ZDO-Hamiltonian        Method          .... INDO


General Settings:
 Integral files         IntName         .... /Users/mattyjones/GoogleDrive/Boise/Code/MorphCT/tests/output_EZ/donor_polymer/chromophores/input_orca/pair/00013-00022
 Hartree-Fock type      HFTyp           .... RHF
 Total Charge           Charge          ....    0
 Multiplicity           Mult            ....    1
 Number of Electrons    NEL             ....  124
 Basis Dimension        Dim             ....  120
 Nuclear Repulsion      ENuc            ....    659.5461696836 Eh

Convergence Acceleration:
 DIIS                   CNVDIIS         .... on
   Start iteration      DIISMaxIt       ....    12
   Startup error        DIISStart       ....  0.200000
   # of expansion vecs  DIISMaxEq       ....     5
   Bias factor          DIISBfac        ....   1.050
   Max. coefficient     DIISMaxC        ....  10.000
 Newton-Raphson         CNVNR           .... off
 SOSCF                  CNVSOSCF        .... on
   Start iteration      SOSCFMaxIt      ....   150
   Startup grad/error   SOSCFStart      ....  0.003300
 Level Shifting         CNVShift        .... on
   Level shift para.    LevelShift      ....    0.2500
   Turn off err/grad.   ShiftErr        ....    0.0010
 Zerner damping         CNVZerner       .... off
 Static damping         CNVDamp         .... on
   Fraction old density DampFac         ....    0.7000
   Max. Damping (<1)    DampMax         ....    0.9800
   Min. Damping (>=0)   DampMin         ....    0.0000
   Turn off err/grad.   DampErr         ....    0.1000
 Fernandez-Rico         CNVRico         .... off

SCF Procedure:
 Maximum # iterations   MaxIter         ....   125
 SCF integral mode      SCFMode         .... Conventional
 Integral Buffer length BufferLength    .... 1048576
 Integral index format  IndFormat       ....     0
 Integral value format  ValFormat       ....     0
 Integral Storage       Thresh          ....  1.000e-08 Eh

Convergence Tolerance:
 Convergence Check Mode ConvCheckMode   .... Total+1el-Energy
 Energy Change          TolE            ....  1.000e-06 Eh
 1-El. energy change                    ....  1.000e-03 Eh
 Orbital Gradient       TolG            ....  5.000e-05
 Orbital Rotation angle TolX            ....  5.000e-05
 DIIS Error             TolErr          ....  1.000e-06


Diagonalization of the overlap matrix:
Smallest eigenvalue                        ... 1.697e-01
Time for diagonalization                   ...    0.004 sec
Threshold for overlap eigenvalues          ... 1.000e-08
Number of eigenvalues below threshold      ... 0
Time for construction of square roots      ...    0.001 sec
Total time needed                          ...    0.005 sec

-------------------------------
INITIAL GUESS: EXTENDED HUECKEL
-------------------------------
EHT matrix was read from disk
EHT matrix was diagonalized
Initial density was built
                      ------------------
                      INITIAL GUESS DONE
                      ------------------

 InCore treatment chosen:
   Memory dedicated               ...    1024 MB
   Memory needed                  ...      0 MB
   Number of tiny    integrals    ...       0
   Number of small   integrals    ...       0
   Number of regular integrals    ...    7392

--------------
SCF ITERATIONS
--------------
ITER       Energy         Delta-E        Max-DP      RMS-DP      [F,P]     Damp
  0    -17.9303369236   0.000000000000 0.04243298  0.00143860  0.1010028 0.7000
  1    -17.9717080331  -0.041371109493 0.04101508  0.00135490  0.0693275 0.7000
                               ***Turning on DIIS***
  2    -18.0023245810  -0.030616547904 0.10692180  0.00347875  0.0422892 0.0000
  3    -18.0817534839  -0.079428902929 0.01678554  0.00072153  0.0181207 0.0000
  4    -18.0683713423   0.013382141663 0.01308764  0.00049465  0.0080261 0.0000
  5    -18.0845803065  -0.016208964209 0.00919264  0.00033427  0.0046951 0.0000
  6    -18.0874808942  -0.002900587697 0.00706020  0.00023778  0.0025723 0.0000
                      *** Initiating the SOSCF procedure ***
                           *** Shutting down DIIS ***
                      *** Re-Reading the Fockian *** 
                      *** Removing any level shift *** 
ITER      Energy       Delta-E        Grad      Rot      Max-DP    RMS-DP
  7    -18.08309860   0.0043822989  0.003007  0.003007  0.004215  0.000134
  8    -18.08090712   0.0021914780  0.000803  0.002211  0.002117  0.000062
  9    -18.08092153  -0.0000144133  0.000354  0.002159  0.002366  0.000065
 10    -18.08092680  -0.0000052653  0.000027  0.000072  0.000136  0.000004
                 **** Energy Check signals convergence ****
              ***Rediagonalizing the Fockian in SOSCF/NRSCF***

               *****************************************************
               *                     SUCCESS                       *
               *           SCF CONVERGED AFTER  11 CYCLES          *
               *****************************************************


----------------
TOTAL SCF ENERGY
----------------

Total Energy       :          -18.08092684 Eh            -492.00703 eV

Components:
Nuclear Repulsion  :          659.54616968 Eh           17947.16369 eV
Electronic Energy  :         -677.62709653 Eh          -18439.17073 eV

One Electron Energy:        -1264.75606075 Eh          -34415.76208 eV
Two Electron Energy:          587.12896423 Eh           15976.59135 eV


---------------
SCF CONVERGENCE
---------------

  Last Energy change         ...   -4.6093e-08  Tolerance :   1.0000e-06
  Last MAX-Density change    ...    5.1272e-05  Tolerance :   1.0000e-05
  Last RMS-Density change    ...    1.3084e-06  Tolerance :   1.0000e-06
  Last Orbital Gradient      ...    9.4021e-06  Tolerance :   5.0000e-05
  Last Orbital Rotation      ...    2.0808e-05  Tolerance :   5.0000e-05

             **** THE GBW FILE WAS UPDATED (/Users/mattyjones/GoogleDrive/Boise/Code/MorphCT/tests/output_EZ/donor_polymer/chromophores/input_orca/pair/00013-00022.gbw) ****
             **** DENSITY FILE WAS UPDATED (/Users/mattyjones/GoogleDrive/Boise/Code/MorphCT/tests/output_EZ/donor_polymer/chromophores/input_orca/pair/00013-00022.scfp.tmp) ****
             **** ENERGY FILE WAS UPDATED (/Users/mattyjones/GoogleDrive/Boise/Code/MorphCT/tests/output_EZ/donor_polymer/chromophores/input_orca/pair/00013-00022.en.tmp) ****
----------------
ORBITAL ENERGIES
----------------

  NO   OCC          E(Eh)            E(eV) 
   0   2.0000      -1.560989       -42.4767 
   1   2.0000      -1.557020       -42.3687 
   2   2.0000      -1.423989       -38.7487 
   3   2.0000      -1.403064       -38.1793 
   4   2.0000      -1.288296       -35.0563 
   5   2.0000      -1.282381       -34.8954 
   6   2.0000      -1.187688       -32.3186 
   7   2.0000      -1.168576       -31.7986 
   8   2.0000      -1.122765       -30.5520 
   9   2.0000      -1.115970       -30.3671 
  10   2.0000      -1.047207       -28.4959 
  11   2.0000      -1.035212       -28.1695 
  12   2.0000      -0.957519       -26.0554 
  13   2.0000      -0.950588       -25.8668 
  14   2.0000      -0.932021       -25.3616 
  15   2.0000      -0.918031       -24.9809 
  16   2.0000      -0.839871       -22.8540 
  17   2.0000      -0.837390       -22.7865 
  18   2.0000      -0.828774       -22.5521 
  19   2.0000      -0.822417       -22.3791 
  20   2.0000      -0.777984       -21.1700 
  21   2.0000      -0.770932       -20.9781 
  22   2.0000      -0.736199       -20.0330 
  23   2.0000      -0.724430       -19.7127 
  24   2.0000      -0.721530       -19.6338 
  25   2.0000      -0.711655       -19.3651 
  26   2.0000      -0.689548       -18.7635 
  27   2.0000      -0.673879       -18.3372 
  28   2.0000      -0.636300       -17.3146 
  29   2.0000      -0.630718       -17.1627 
  30   2.0000      -0.623005       -16.9528 
  31   2.0000      -0.606020       -16.4906 
  32   2.0000      -0.598663       -16.2905 
  33   2.0000      -0.580700       -15.8016 
  34   2.0000      -0.575952       -15.6725 
  35   2.0000      -0.575098       -15.6492 
  36   2.0000      -0.568070       -15.4580 
  37   2.0000      -0.564325       -15.3561 
  38   2.0000      -0.560700       -15.2574 
  39   2.0000      -0.546951       -14.8833 
  40   2.0000      -0.537304       -14.6208 
  41   2.0000      -0.533663       -14.5217 
  42   2.0000      -0.518460       -14.1080 
  43   2.0000      -0.517401       -14.0792 
  44   2.0000      -0.509172       -13.8553 
  45   2.0000      -0.502544       -13.6749 
  46   2.0000      -0.493907       -13.4399 
  47   2.0000      -0.493560       -13.4305 
  48   2.0000      -0.487573       -13.2675 
  49   2.0000      -0.485337       -13.2067 
  50   2.0000      -0.481268       -13.0960 
  51   2.0000      -0.476362       -12.9625 
  52   2.0000      -0.474625       -12.9152 
  53   2.0000      -0.467655       -12.7255 
  54   2.0000      -0.466262       -12.6876 
  55   2.0000      -0.458119       -12.4661 
  56   2.0000      -0.436598       -11.8804 
  57   2.0000      -0.435672       -11.8552 
  58   2.0000      -0.356333        -9.6963 
  59   2.0000      -0.355131        -9.6636 
  60   2.0000      -0.305003        -8.2996 
  61   2.0000      -0.304710        -8.2916 
  62   0.0000       0.008108         0.2206 
  63   0.0000       0.008175         0.2224 
  64   0.0000       0.071354         1.9416 
  65   0.0000       0.071436         1.9439 
  66   0.0000       0.076969         2.0944 
  67   0.0000       0.079777         2.1708 
  68   0.0000       0.086438         2.3521 
  69   0.0000       0.090662         2.4670 
  70   0.0000       0.102547         2.7904 
  71   0.0000       0.102794         2.7972 
  72   0.0000       0.107918         2.9366 
  73   0.0000       0.107985         2.9384 
  74   0.0000       0.124207         3.3798 
  75   0.0000       0.124295         3.3822 
  76   0.0000       0.140026         3.8103 
  77   0.0000       0.141083         3.8391 
  78   0.0000       0.157565         4.2875 
  79   0.0000       0.161511         4.3949 
  80   0.0000       0.163984         4.4622 
  81   0.0000       0.164929         4.4880 
  82   0.0000       0.169729         4.6186 
  83   0.0000       0.169832         4.6214 
  84   0.0000       0.204969         5.5775 
  85   0.0000       0.208154         5.6642 
  86   0.0000       0.231380         6.2962 
  87   0.0000       0.232486         6.3263 
  88   0.0000       0.235292         6.4026 
  89   0.0000       0.235741         6.4148 
  90   0.0000       0.236907         6.4466 
  91   0.0000       0.237527         6.4634 
  92   0.0000       0.239664         6.5216 
  93   0.0000       0.240831         6.5533 
  94   0.0000       0.241700         6.5770 
  95   0.0000       0.242294         6.5931 
  96   0.0000       0.242899         6.6096 
  97   0.0000       0.243646         6.6299 
  98   0.0000       0.244745         6.6599 
  99   0.0000       0.245074         6.6688 
 100   0.0000       0.251698         6.8490 
 101   0.0000       0.256573         6.9817 
 102   0.0000       0.259055         7.0493 
 103   0.0000       0.266827         7.2607 
 104   0.0000       0.267258         7.2724 
 105   0.0000       0.271853         7.3975 
 106   0.0000       0.277857         7.5609 
 107   0.0000       0.280805         7.6411 
 108   0.0000       0.304335         8.2814 
 109   0.0000       0.307540         8.3686 
 110   0.0000       0.310431         8.4472 
 111   0.0000       0.310535         8.4501 
 112   0.0000       0.337264         9.1774 
 113   0.0000       0.341549         9.2940 
 114   0.0000       0.352242         9.5850 
 115   0.0000       0.353450         9.6179 
 116   0.0000       0.413622        11.2552 
 117   0.0000       0.418274        11.3818 
 118   0.0000       0.426176        11.5968 
 119   0.0000       0.429841        11.6966 
-------
TIMINGS
-------

Total SCF time: 0 days 0 hours 0 min 0 sec 

Total time                  ....       0.139 sec
Sum of individual times     ....       0.111 sec  ( 80.1%)

Fock matrix formation       ....       0.055 sec  ( 39.6%)
Diagonalization             ....       0.030 sec  ( 21.9%)
Density matrix formation    ....       0.005 sec  (  3.9%)
Population analysis         ....       0.000 sec  (  0.0%)
Initial guess               ....       0.003 sec  (  2.2%)
Orbital Transformation      ....       0.000 sec  (  0.0%)
Orbital Orthonormalization  ....       0.000 sec  (  0.0%)
DIIS solution               ....       0.011 sec  (  8.2%)
SOSCF solution              ....       0.006 sec  (  4.2%)

-------------------------   --------------------
FINAL SINGLE POINT ENERGY       -18.080926841925
-------------------------   --------------------


                            ***************************************
                            *     ORCA property calculations      *
                            ***************************************

                                    ---------------------
                                    Active property flags
                                    ---------------------
   (+) Dipole Moment


------------------------------------------------------------------------------
                       ORCA ELECTRIC PROPERTIES CALCULATION
------------------------------------------------------------------------------

Dipole Moment Calculation                       ... on
Quadrupole Moment Calculation                   ... off
Polarizability Calculation                      ... off
GBWName                                         ... /Users/mattyjones/GoogleDrive/Boise/Code/MorphCT/tests/output_EZ/donor_polymer/chromophores/input_orca/pair/00013-00022.gbw
Electron density file                           ... /Users/mattyjones/GoogleDrive/Boise/Code/MorphCT/tests/output_EZ/donor_polymer/chromophores/input_orca/pair/00013-00022.scfp.tmp

-------------
DIPOLE MOMENT
-------------
                                X             Y             Z
Electronic contribution:   -219.10040    -122.96582      17.12327
Nuclear contribution   :    116.72266      65.56890      -8.79110
                        -----------------------------------------
Total Dipole Moment    :   -102.37774     -57.39693       8.33217
                        -----------------------------------------
Magnitude (a.u.)       :    117.66492
Magnitude (Debye)      :    299.08047


Timings for individual modules:

Sum of individual times         ...        0.220 sec (=   0.004 min)
STO integral calculation        ...        0.045 sec (=   0.001 min)  20.3 %
SCF iterations                  ...        0.175 sec (=   0.003 min)  79.7 %
                             ****ORCA TERMINATED NORMALLY****
TOTAL RUN TIME: 0 days 0 hours 0 minutes 0 seconds 568 msec

