
                                 *****************
                                 * O   R   C   A *
                                 *****************

           --- An Ab Initio, DFT and Semiempirical electronic structure package ---

                  #######################################################
                  #                        -***-                        #
                  #  Department of molecular theory and spectroscopy    #
                  #              Directorship: Frank Neese              #
                  # Max Planck Institute for Chemical Energy Conversion #
                  #                  D-45470 Muelheim/Ruhr              #
                  #                       Germany                       #
                  #                                                     #
                  #                  All rights reserved                #
                  #                        -***-                        #
                  #######################################################


                         Program Version 3.0.3 - RELEASE   -


 With contributions from (in alphabetic order):
   Ute Becker             : Parallelization
   Dmytro Bykov           : SCF Hessian
   Dmitry Ganyushin       : Spin-Orbit,Spin-Spin,Magnetic field MRCI
   Andreas Hansen         : Spin unrestricted coupled pair/coupled cluster methods
   Dimitrios Liakos       : Extrapolation schemes; parallel MDCI
   Robert Izsak           : Overlap fitted RIJCOSX, COSX-SCS-MP3
   Christian Kollmar      : KDIIS, OOCD, Brueckner-CCSD(T), CCSD density
   Simone Kossmann        : Meta GGA functionals, TD-DFT gradient, OOMP2, MP2 Hessian
   Taras Petrenko         : DFT Hessian,TD-DFT gradient, ASA and ECA modules, normal mode analysis, Resonance Raman, ABS, FL, XAS/XES, NRVS
   Christoph Reimann      : Effective Core Potentials
   Michael Roemelt        : Restricted open shell CIS
   Christoph Riplinger    : Improved optimizer, TS searches, QM/MM, DLPNO-CCSD
   Barbara Sandhoefer     : DKH picture change effects
   Igor Schapiro          : Molecular dynamics
   Kantharuban Sivalingam : CASSCF convergence, NEVPT2
   Boris Wezisla          : Elementary symmetry handling
   Frank Wennmohs         : Technical directorship


 We gratefully acknowledge several colleagues who have allowed us to
 interface, adapt or use parts of their codes:
   Stefan Grimme, W. Hujo, H. Kruse, T. Risthaus : VdW corrections, initial TS optimization,
                                                   DFT functionals, gCP
   Ed Valeev                                     : LibInt (2-el integral package), F12 methods
   Garnet Chan, S. Sharma, R. Olivares           : DMRG
   Ulf Ekstrom                                   : XCFun DFT Library
   Mihaly Kallay                                 : mrcc  (arbitrary order and MRCC methods)
   Andreas Klamt, Michael Diedenhofen            : otool_cosmo (COSMO solvation model)
   Frank Weinhold                                : gennbo (NPA and NBO analysis)
   Christopher J. Cramer and Donald G. Truhlar   : smd solvation model


 Your calculation uses the libint2 library for the computation of 2-el integrals
 For citations please refer to: http://libint.valeyev.net

 This ORCA versions uses:
   CBLAS   interface :  Fast vector & matrix operations
   LAPACKE interface :  Fast linear algebra routines
   SCALAPACK package :  Parallel linear algebra routines


leaving
================================================================================
                                        WARNINGS
                       Please study these warnings very carefully!
================================================================================
Now building the actual basis set

WARNING: Direct SCF is incompatible with Method<>HF and Method<>DFT
  ===> : conventional SCF is chosen

WARNING: The NDO methods need Guess=HUECKEL or Guess=HCORE or Guess=MOREAD
  ===> : Guess is set to Hueckel

WARNING: The NDO methods need %rel::SOCType==1
  ===> : %rel::SOCType is set to 1

WARNING: The NDO methods cannot have frozencore=1
  ===> : %method FrozenCore=0 end


INFO   : the flag for use of LIBINT has been found!

================================================================================
                                       INPUT FILE
================================================================================
NAME = /Users/mattyjones/GoogleDrive/Boise/Code/MorphCT/tests/output_EZ/donor_polymer/chromophores/input_orca/pair/00011-00023.inp
|  1> # ================================================================
|  2> # Orca input file made by Matty Jones
|  3> # ================================================================
|  4> ! ZINDO/S 
|  5> ! NOPOP
|  6> ! NOMOPRINT
|  7> * xyz 0   1
|  8>  C  -15.48194  -7.38897  2.57459
|  9>  C  -14.52127  -6.55931  3.15482
| 10>  C  -13.96614  -7.06953  4.36964
| 11>  C  -14.49113  -8.30831  4.75059
| 12>  S  -15.59893  -8.70162  3.58076
| 13>  H  -14.21533  -5.55680  2.70793
| 14>  C  -12.85340  -6.21299  5.16669
| 15>  C  -11.46531  -5.66605  4.32326
| 16>  C  -11.45850  -4.24309  3.38292
| 17>  H  -10.59965  -4.40528  2.61551
| 18>  H  -12.45789  -4.23125  2.80254
| 19>  H  -11.16602  -6.52547  3.61552
| 20>  H  -10.64117  -5.52444  5.11946
| 21>  H  -13.34461  -5.25764  5.61081
| 22>  H  -12.44125  -6.84713  6.05600
| 23>  C  -11.23505  -2.76666  4.03719
| 24>  C  -11.18285  -1.50416  2.89791
| 25>  C  -9.64803  -0.99195  2.42961
| 26>  H  -9.01023  -0.79156  3.37426
| 27>  H  -9.74664  -0.01397  1.81729
| 28>  H  -9.14468  -1.80706  1.78281
| 29>  H  -11.72677  -1.87040  1.94825
| 30>  H  -11.74716  -0.60157  3.33765
| 31>  H  -12.10910  -2.53461  4.75806
| 32>  H  -10.24485  -2.74459  4.63076
| 33>  C  16.45830  4.23279  -5.23545
| 34>  C  15.23243  3.71663  -5.65818
| 35>  C  14.10264  4.25470  -4.96655
| 36>  C  14.43811  5.20050  -3.99278
| 37>  S  16.09165  5.31957  -4.03814
| 38>  H  14.88244  3.49524  -6.78475
| 39>  C  12.59828  3.77260  -5.34554
| 40>  C  11.35831  3.35603  -4.22665
| 41>  C  11.55378  3.29036  -2.54472
| 42>  H  10.68521  2.66437  -2.10823
| 43>  H  12.55391  2.76456  -2.31253
| 44>  H  10.48930  4.08516  -4.43529
| 45>  H  11.02353  2.28852  -4.52682
| 46>  H  12.70466  2.81214  -6.00336
| 47>  H  12.11661  4.60445  -6.01367
| 48>  C  11.52643  4.78413  -1.90825
| 49>  C  10.07313  5.54401  -1.53615
| 50>  C  9.59158  6.63302  -2.73510
| 51>  H  8.43827  6.63561  -2.82237
| 52>  H  10.04934  6.32107  -3.75153
| 53>  H  9.95682  7.69791  -2.46944
| 54>  H  9.29811  4.69982  -1.45497
| 55>  H  10.19295  6.06787  -0.52305
| 56>  H  12.21766  4.84589  -0.98881
| 57>  H  11.92667  5.41756  -2.78866
| 58>  H  -16.02274  -7.21631  1.67942
| 59>  H  -14.23472  -8.87693  5.60763
| 60>  H  17.42079  3.98275  -5.60245
| 61>  H  13.77448  5.73041  -3.35844
| 62> *
| 63> 
| 64>                          ****END OF INPUT****
================================================================================

                       ****************************
                       * Single Point Calculation *
                       ****************************

---------------------------------
CARTESIAN COORDINATES (ANGSTROEM)
---------------------------------
  C    -15.481940   -7.388970    2.574590
  C    -14.521270   -6.559310    3.154820
  C    -13.966140   -7.069530    4.369640
  C    -14.491130   -8.308310    4.750590
  S    -15.598930   -8.701620    3.580760
  H    -14.215330   -5.556800    2.707930
  C    -12.853400   -6.212990    5.166690
  C    -11.465310   -5.666050    4.323260
  C    -11.458500   -4.243090    3.382920
  H    -10.599650   -4.405280    2.615510
  H    -12.457890   -4.231250    2.802540
  H    -11.166020   -6.525470    3.615520
  H    -10.641170   -5.524440    5.119460
  H    -13.344610   -5.257640    5.610810
  H    -12.441250   -6.847130    6.056000
  C    -11.235050   -2.766660    4.037190
  C    -11.182850   -1.504160    2.897910
  C     -9.648030   -0.991950    2.429610
  H     -9.010230   -0.791560    3.374260
  H     -9.746640   -0.013970    1.817290
  H     -9.144680   -1.807060    1.782810
  H    -11.726770   -1.870400    1.948250
  H    -11.747160   -0.601570    3.337650
  H    -12.109100   -2.534610    4.758060
  H    -10.244850   -2.744590    4.630760
  C     16.458300    4.232790   -5.235450
  C     15.232430    3.716630   -5.658180
  C     14.102640    4.254700   -4.966550
  C     14.438110    5.200500   -3.992780
  S     16.091650    5.319570   -4.038140
  H     14.882440    3.495240   -6.784750
  C     12.598280    3.772600   -5.345540
  C     11.358310    3.356030   -4.226650
  C     11.553780    3.290360   -2.544720
  H     10.685210    2.664370   -2.108230
  H     12.553910    2.764560   -2.312530
  H     10.489300    4.085160   -4.435290
  H     11.023530    2.288520   -4.526820
  H     12.704660    2.812140   -6.003360
  H     12.116610    4.604450   -6.013670
  C     11.526430    4.784130   -1.908250
  C     10.073130    5.544010   -1.536150
  C      9.591580    6.633020   -2.735100
  H      8.438270    6.635610   -2.822370
  H     10.049340    6.321070   -3.751530
  H      9.956820    7.697910   -2.469440
  H      9.298110    4.699820   -1.454970
  H     10.192950    6.067870   -0.523050
  H     12.217660    4.845890   -0.988810
  H     11.926670    5.417560   -2.788660
  H    -16.022740   -7.216310    1.679420
  H    -14.234720   -8.876930    5.607630
  H     17.420790    3.982750   -5.602450
  H     13.774480    5.730410   -3.358440

----------------------------
CARTESIAN COORDINATES (A.U.)
----------------------------
  NO LB      ZA    FRAG    MASS        X           Y           Z
   0 C     4.0000    0    12.011        -29.256626621800784        -13.963129711760111          4.865270007132316
   1 C     4.0000    0    12.011        -27.441223416726654        -12.395299527491005          5.961745801817443
   2 C     4.0000    0    12.011        -26.392179748002949        -13.359475595540307          8.257422903827658
   3 C     4.0000    0    12.011        -27.384267071050267        -15.700430535719276          8.977314074544958
   4 S     6.0000    0    32.060        -29.477705682208228        -16.443678721451843          6.766655751299862
   5 H     1.0000    0     1.008        -26.863080603314785        -10.500830180973612          5.117246089829376
   6 C     4.0000    0    12.011        -24.289405889743417        -11.740849572791397          9.763629118869591
   7 C     4.0000    0    12.011        -21.666295940508668        -10.707282761104508          8.169777405736392
   8 C     4.0000    0    12.011        -21.653426905536662         -8.018278061579922          6.392792332964881
   9 H     1.0000    0     1.008        -20.030435615418398         -8.324772743240612          4.942597600532373
  10 H     1.0000    0     1.008        -23.542000306516222         -7.995903704154297          5.296033079359665
  11 H     1.0000    0     1.008        -21.100719805887373        -12.331351195119110          6.832342631714964
  12 H     1.0000    0     1.008        -20.108897044498807        -10.439678643279921          9.674377353564491
  13 H     1.0000    0     1.008        -25.217658263986873         -9.935499710749729         10.602894289466697
  14 H     1.0000    0     1.008        -23.510555263647774        -12.939200503356220         11.444181467027100
  15 C     4.0000    0    12.011        -21.231167600911956         -5.228229705674570          7.629183450605538
  16 C     4.0000    0    12.011        -21.132523896721271         -2.842450461598990          5.476256260751734
  17 C     4.0000    0    12.011        -18.232134431856256         -1.874513838543186          4.591297512236412
  18 H     1.0000    0     1.008        -17.026867103641280         -1.495831618566706          6.376427304645123
  19 H     1.0000    0     1.008        -18.418480325922229         -0.026399474090880          3.434180405913752
  20 H     1.0000    0     1.008        -17.280940782346992         -3.414848507563737          3.369022648816147
  21 H     1.0000    0     1.008        -22.160383735483716         -3.534543760886309          3.681658940412079
  22 H     1.0000    0     1.008        -22.198915251354368         -1.136802550383007          6.307244430882266
  23 H     1.0000    0     1.008        -22.882882728265827         -4.789718756298143          8.991430328765352
  24 H     1.0000    0     1.008        -19.359960783103134         -5.186523449898928          8.750868191917176
  25 C     4.0000    0    12.011         31.101679629916138          7.998813882400534         -9.893566687838018
  26 C     4.0000    0    12.011         28.785121054126094          7.023412841115741        -10.692410616430548
  27 C     4.0000    0    12.011         26.650127365283200          8.040217781994748         -9.385419330426592
  28 C     4.0000    0    12.011         27.284073791429762          9.827520759457469         -7.545260712998096
  29 S     6.0000    0    32.060         30.408811542913913         10.052530450223472         -7.630978690432764
  30 H     1.0000    0     1.008         28.123735804514993          6.605046372326916        -12.821319387122212
  31 C     4.0000    0    12.011         23.807298958457427          7.129180812831314        -10.101606637921407
  32 C     4.0000    0    12.011         21.464095244179092          6.341977597223738         -7.987210963938259
  33 C     4.0000    0    12.011         21.833480011576679          6.217879282009130         -4.808823887512087
  34 H     1.0000    0     1.008         20.192120583436697          5.034929619435765         -3.983977327316800
  35 H     1.0000    0     1.008         23.723451809895341          5.224261280793336         -4.370048376476912
  36 H     1.0000    0     1.008         19.821904336540186          7.719833613249740         -8.381483424519589
  37 H     1.0000    0     1.008         20.831452729064935          4.324676052001463         -8.554450057557400
  38 H     1.0000    0     1.008         24.008328024583971          5.314174450245308        -11.344706283337485
  39 H     1.0000    0     1.008         22.897074571531576          8.701149497333708        -11.364189359778214
  40 C     4.0000    0    12.011         21.781796001813930          9.040695489076677         -3.606069895055228
  41 C     4.0000    0    12.011         19.035457011386178         10.476660583720758         -2.902902800623131
  42 C     4.0000    0    12.011         18.125459391596401         12.534591240822341         -5.168589948888015
  43 H     1.0000    0     1.008         15.946019344083679         12.539485631509196         -5.333506348595323
  44 H     1.0000    0     1.008         18.990500426660194         11.945091173345606         -7.089364283189592
  45 H     1.0000    0     1.008         18.815662964749798         14.546941703573744         -4.666565304150496
  46 H     1.0000    0     1.008         17.570881463074528          8.881372678725777         -2.749494833071404
  47 H     1.0000    0     1.008         19.261883996752623         11.466612516236745         -0.988421254347511
  48 H     1.0000    0     1.008         23.088031397364322          9.157404975107655         -1.868580098482673
  49 H     1.0000    0     1.008         22.538139989654574         10.237704714086416         -5.269803680620837
  50 H     1.0000    0     1.008        -30.278590515025392        -13.636849597477267          3.173643863830028
  51 H     1.0000    0     1.008        -26.899722393051519        -16.774966609989576         10.596884960360828
  52 H     1.0000    0     1.008         32.920522136554005          7.526306759874864        -10.587096178987117
  53 H     1.0000    0     1.008         26.029994837175604         10.828905535083679         -6.346531837206488

--------------------------------
INTERNAL COORDINATES (ANGSTROEM)
--------------------------------
 C      0   0   0   0.000000     0.000     0.000
 C      1   0   0   1.395668     0.000     0.000
 C      2   1   0   1.429784   114.101     0.000
 C      3   2   1   1.398325   113.693     0.000
 S      1   2   3   1.658045   105.480     0.000
 H      2   1   3   1.139446   123.009   180.766
 C      3   2   1   1.614664   119.847   180.686
 C      7   3   2   1.713859   118.981   307.195
 C      8   7   3   1.705609   122.738    83.064
 H      9   8   7   1.163120   104.499   204.192
 H      9   8   7   1.155751   106.377   318.286
 H      8   7   3   1.152854   105.931   320.876
 H      8   7   3   1.154640   106.134   204.821
 H      7   3   2   1.162421   109.473    68.580
 H      7   3   2   1.167422   109.340   186.386
 C      9   8   7   1.630290   122.333    82.992
 C     16   9   8   1.701349   114.047   176.844
 C     17  16   9   1.684439   116.089   262.328
 H     18  17  16   1.157285   109.140   310.001
 H     18  17  16   1.158061   109.039   190.538
 H     18  17  16   1.155905   109.750    70.380
 H     17  16   9   1.154051   107.523    22.433
 H     17  16   9   1.151732   108.109   140.436
 H     16   9   8   1.156488   109.164   296.398
 H     16   9   8   1.154690   109.947    55.796
 C     21  18  17  27.225876   113.410   183.874
 C     26  21  18   1.395664    33.906   222.481
 C     27  26  21   1.429789   114.101    28.997
 C     28  27  26   1.398322   113.693     0.000
 S     26  21  18   1.658033    75.600    13.643
 H     27  26  21   1.200278   127.490   167.390
 C     28  27  26   1.624547   120.477   179.397
 C     32  28  27   1.721328   125.961   135.170
 C     33  32  28   1.694523   124.853   355.825
 H     34  33  32   1.156201   108.001   198.304
 H     34  33  32   1.153533   108.510   316.539
 H     33  32  28   1.153403   105.794   120.258
 H     33  32  28   1.158342   105.235   235.061
 H     32  28  27   1.168986   106.908    13.787
 H     32  28  27   1.170631   107.655   258.578
 C     34  33  32   1.623943   110.575    78.243
 C     41  34  33   1.681653   121.126    84.326
 C     42  41  34   1.689768   112.365   261.073
 H     43  42  41   1.156610   109.825   145.506
 H     43  42  41   1.157578   109.673    25.511
 H     43  42  41   1.156705   109.900   265.751
 H     42  41  34   1.148870   105.462    20.130
 H     42  41  34   1.146803   108.155   137.906
 H     41  34  33   1.151948   110.612   212.911
 H     41  34  33   1.156091   101.519   331.652
 H      1   2   3   1.060003   127.260   180.000
 H      4   3   2   1.059996   127.206   180.000
 H     26  21  18   1.059998   152.975   164.366
 H     29  28  27   1.059998   127.206   180.000

---------------------------
INTERNAL COORDINATES (A.U.)
---------------------------
 C      0   0   0   0.000000     0.000     0.000
 C      1   0   0   2.637430     0.000     0.000
 C      2   1   0   2.701900   114.101     0.000
 C      3   2   1   2.642452   113.693     0.000
 S      1   2   3   3.133252   105.480     0.000
 H      2   1   3   2.153240   123.009   180.766
 C      3   2   1   3.051273   119.847   180.686
 C      7   3   2   3.238723   118.981   307.195
 C      8   7   3   3.223133   122.738    83.064
 H      9   8   7   2.197977   104.499   204.192
 H      9   8   7   2.184054   106.377   318.286
 H      8   7   3   2.178579   105.931   320.876
 H      8   7   3   2.181954   106.134   204.821
 H      7   3   2   2.196658   109.473    68.580
 H      7   3   2   2.206107   109.340   186.386
 C      9   8   7   3.080801   122.333    82.992
 C     16   9   8   3.215085   114.047   176.844
 C     17  16   9   3.183129   116.089   262.328
 H     18  17  16   2.186952   109.140   310.001
 H     18  17  16   2.188418   109.039   190.538
 H     18  17  16   2.184343   109.750    70.380
 H     17  16   9   2.180841   107.523    22.433
 H     17  16   9   2.176457   108.109   140.436
 H     16   9   8   2.185445   109.164   296.398
 H     16   9   8   2.182047   109.947    55.796
 C     21  18  17  51.449450   113.410   183.874
 C     26  21  18   2.637423    33.906   222.481
 C     27  26  21   2.701910   114.101    28.997
 C     28  27  26   2.642447   113.693     0.000
 S     26  21  18   3.133229    75.600    13.643
 H     27  26  21   2.268196   127.490   167.390
 C     28  27  26   3.069949   120.477   179.397
 C     32  28  27   3.252839   125.961   135.170
 C     33  32  28   3.202185   124.853   355.825
 H     34  33  32   2.184903   108.001   198.304
 H     34  33  32   2.179861   108.510   316.539
 H     33  32  28   2.179617   105.794   120.258
 H     33  32  28   2.188950   105.235   235.061
 H     32  28  27   2.209063   106.908    13.787
 H     32  28  27   2.212173   107.655   258.578
 C     34  33  32   3.068808   110.575    78.243
 C     41  34  33   3.177864   121.126    84.326
 C     42  41  34   3.193198   112.365   261.073
 H     43  42  41   2.185676   109.825   145.506
 H     43  42  41   2.187506   109.673    25.511
 H     43  42  41   2.185855   109.900   265.751
 H     42  41  34   2.171050   105.462    20.130
 H     42  41  34   2.167144   108.155   137.906
 H     41  34  33   2.176865   110.612   212.911
 H     41  34  33   2.184696   101.519   331.652
 H      1   2   3   2.003115   127.260   180.000
 H      4   3   2   2.003103   127.206   180.000
 H     26  21  18   2.003106   152.975   164.366
 H     29  28  27   2.003107   127.206   180.000

----------------------------
SLATER BASIS SET DIM= 120
----------------------------
  0 C     2 shells
 l=0 nsto= 1
    2       1.625000000000        1.000000000000
 l=1 nsto= 1
    2       1.625000000000        1.000000000000
  1 C     2 shells
 l=0 nsto= 1
    2       1.625000000000        1.000000000000
 l=1 nsto= 1
    2       1.625000000000        1.000000000000
  2 C     2 shells
 l=0 nsto= 1
    2       1.625000000000        1.000000000000
 l=1 nsto= 1
    2       1.625000000000        1.000000000000
  3 C     2 shells
 l=0 nsto= 1
    2       1.625000000000        1.000000000000
 l=1 nsto= 1
    2       1.625000000000        1.000000000000
  4 S     2 shells
 l=0 nsto= 1
    3       1.925000000000        1.000000000000
 l=1 nsto= 1
    3       1.925000000000        1.000000000000
  5 H     1 shells
 l=0 nsto= 1
    1       1.200000000000        1.000000000000
  6 C     2 shells
 l=0 nsto= 1
    2       1.625000000000        1.000000000000
 l=1 nsto= 1
    2       1.625000000000        1.000000000000
  7 C     2 shells
 l=0 nsto= 1
    2       1.625000000000        1.000000000000
 l=1 nsto= 1
    2       1.625000000000        1.000000000000
  8 C     2 shells
 l=0 nsto= 1
    2       1.625000000000        1.000000000000
 l=1 nsto= 1
    2       1.625000000000        1.000000000000
  9 H     1 shells
 l=0 nsto= 1
    1       1.200000000000        1.000000000000
 10 H     1 shells
 l=0 nsto= 1
    1       1.200000000000        1.000000000000
 11 H     1 shells
 l=0 nsto= 1
    1       1.200000000000        1.000000000000
 12 H     1 shells
 l=0 nsto= 1
    1       1.200000000000        1.000000000000
 13 H     1 shells
 l=0 nsto= 1
    1       1.200000000000        1.000000000000
 14 H     1 shells
 l=0 nsto= 1
    1       1.200000000000        1.000000000000
 15 C     2 shells
 l=0 nsto= 1
    2       1.625000000000        1.000000000000
 l=1 nsto= 1
    2       1.625000000000        1.000000000000
 16 C     2 shells
 l=0 nsto= 1
    2       1.625000000000        1.000000000000
 l=1 nsto= 1
    2       1.625000000000        1.000000000000
 17 C     2 shells
 l=0 nsto= 1
    2       1.625000000000        1.000000000000
 l=1 nsto= 1
    2       1.625000000000        1.000000000000
 18 H     1 shells
 l=0 nsto= 1
    1       1.200000000000        1.000000000000
 19 H     1 shells
 l=0 nsto= 1
    1       1.200000000000        1.000000000000
 20 H     1 shells
 l=0 nsto= 1
    1       1.200000000000        1.000000000000
 21 H     1 shells
 l=0 nsto= 1
    1       1.200000000000        1.000000000000
 22 H     1 shells
 l=0 nsto= 1
    1       1.200000000000        1.000000000000
 23 H     1 shells
 l=0 nsto= 1
    1       1.200000000000        1.000000000000
 24 H     1 shells
 l=0 nsto= 1
    1       1.200000000000        1.000000000000
 25 C     2 shells
 l=0 nsto= 1
    2       1.625000000000        1.000000000000
 l=1 nsto= 1
    2       1.625000000000        1.000000000000
 26 C     2 shells
 l=0 nsto= 1
    2       1.625000000000        1.000000000000
 l=1 nsto= 1
    2       1.625000000000        1.000000000000
 27 C     2 shells
 l=0 nsto= 1
    2       1.625000000000        1.000000000000
 l=1 nsto= 1
    2       1.625000000000        1.000000000000
 28 C     2 shells
 l=0 nsto= 1
    2       1.625000000000        1.000000000000
 l=1 nsto= 1
    2       1.625000000000        1.000000000000
 29 S     2 shells
 l=0 nsto= 1
    3       1.925000000000        1.000000000000
 l=1 nsto= 1
    3       1.925000000000        1.000000000000
 30 H     1 shells
 l=0 nsto= 1
    1       1.200000000000        1.000000000000
 31 C     2 shells
 l=0 nsto= 1
    2       1.625000000000        1.000000000000
 l=1 nsto= 1
    2       1.625000000000        1.000000000000
 32 C     2 shells
 l=0 nsto= 1
    2       1.625000000000        1.000000000000
 l=1 nsto= 1
    2       1.625000000000        1.000000000000
 33 C     2 shells
 l=0 nsto= 1
    2       1.625000000000        1.000000000000
 l=1 nsto= 1
    2       1.625000000000        1.000000000000
 34 H     1 shells
 l=0 nsto= 1
    1       1.200000000000        1.000000000000
 35 H     1 shells
 l=0 nsto= 1
    1       1.200000000000        1.000000000000
 36 H     1 shells
 l=0 nsto= 1
    1       1.200000000000        1.000000000000
 37 H     1 shells
 l=0 nsto= 1
    1       1.200000000000        1.000000000000
 38 H     1 shells
 l=0 nsto= 1
    1       1.200000000000        1.000000000000
 39 H     1 shells
 l=0 nsto= 1
    1       1.200000000000        1.000000000000
 40 C     2 shells
 l=0 nsto= 1
    2       1.625000000000        1.000000000000
 l=1 nsto= 1
    2       1.625000000000        1.000000000000
 41 C     2 shells
 l=0 nsto= 1
    2       1.625000000000        1.000000000000
 l=1 nsto= 1
    2       1.625000000000        1.000000000000
 42 C     2 shells
 l=0 nsto= 1
    2       1.625000000000        1.000000000000
 l=1 nsto= 1
    2       1.625000000000        1.000000000000
 43 H     1 shells
 l=0 nsto= 1
    1       1.200000000000        1.000000000000
 44 H     1 shells
 l=0 nsto= 1
    1       1.200000000000        1.000000000000
 45 H     1 shells
 l=0 nsto= 1
    1       1.200000000000        1.000000000000
 46 H     1 shells
 l=0 nsto= 1
    1       1.200000000000        1.000000000000
 47 H     1 shells
 l=0 nsto= 1
    1       1.200000000000        1.000000000000
 48 H     1 shells
 l=0 nsto= 1
    1       1.200000000000        1.000000000000
 49 H     1 shells
 l=0 nsto= 1
    1       1.200000000000        1.000000000000
 50 H     1 shells
 l=0 nsto= 1
    1       1.200000000000        1.000000000000
 51 H     1 shells
 l=0 nsto= 1
    1       1.200000000000        1.000000000000
 52 H     1 shells
 l=0 nsto= 1
    1       1.200000000000        1.000000000000
 53 H     1 shells
 l=0 nsto= 1
    1       1.200000000000        1.000000000000
------------------------------------------------------------------------------
                           ORCA NDO INTEGRAL CALCULATION
------------------------------------------------------------------------------

--------------
NDO PARAMETERS
--------------

Gamma integral treatment              ... Mataga-Nishimoto
Nuclear repulsuion treatment          ... Direct (ZA*ZB/RAB)
Interaction factors:
s-s (sigma) =    1.0000
s-p (sigma) =    1.0000
s-d (sigma) =    1.0000
p-p (sigma) =    1.2670  p-p(pi) =    0.5850
p-d (sigma) =    1.0000  p-d(pi) =    1.0000
d-d (sigma) =    1.0000  d-d(pi) =    1.0000 d-d (delta) =    1.0000

fGamma parameter for Mataga-Nishimoto gamma integrals:    1.2000

--------------------------
Parameters for Element H :
--------------------------
 One-electron parameters (in eV)
  U(s)  =   -13.060000 Beta(s) =    12.000000 Neff(s) =     1.000000
 One-center electron repulsion parameters (in eV)
  G(s,s)=    12.850000
--------------------------
Parameters for Element C :
--------------------------
 One-electron parameters (in eV)
  U(s)  =   -50.870766 Beta(s) =    17.000000 Neff(s) =     2.000000
  U(p)  =   -41.599980 Beta(p) =    17.000000 Neff(p) =     2.000000 
 One-center electron repulsion parameters (in eV)
  G(s,s)=    11.110000
  G(s,p)=    11.110000 G(p,p)  =    11.110000
 Slater-Condon parameters (in eV)
 F2(p,p)=     4.5098 G1(s,p)=    6.8977
--------------------------
Parameters for Element S :
--------------------------
 One-electron parameters (in eV)
  U(s)  =   -69.509597 Beta(s) =    15.000000 Neff(s) =     2.000000
  U(p)  =   -60.725746 Beta(p) =    15.000000 Neff(p) =     4.000000 
 One-center electron repulsion parameters (in eV)
  G(s,s)=    10.090000
  G(s,p)=    10.090000 G(p,p)  =    10.090000
 Slater-Condon parameters (in eV)
 F2(p,p)=     4.5377 G1(s,p)=    3.0756

 Number of atoms                    ....   54
 Number of basis functions          ....  120

 Overlap integrals                  .... done
 One electron matrix                .... done
 Nuclear repulsion                  .... done
 Integral list                      .... done
 Electron-electron repulsion        .... done
-------------------------------------------------------------------------------
                                 ORCA SCF
-------------------------------------------------------------------------------

------------
SCF SETTINGS
------------
Hamiltonian:
 ZDO-Hamiltonian        Method          .... INDO


General Settings:
 Integral files         IntName         .... /Users/mattyjones/GoogleDrive/Boise/Code/MorphCT/tests/output_EZ/donor_polymer/chromophores/input_orca/pair/00011-00023
 Hartree-Fock type      HFTyp           .... RHF
 Total Charge           Charge          ....    0
 Multiplicity           Mult            ....    1
 Number of Electrons    NEL             ....  124
 Basis Dimension        Dim             ....  120
 Nuclear Repulsion      ENuc            ....    672.0051154893 Eh

Convergence Acceleration:
 DIIS                   CNVDIIS         .... on
   Start iteration      DIISMaxIt       ....    12
   Startup error        DIISStart       ....  0.200000
   # of expansion vecs  DIISMaxEq       ....     5
   Bias factor          DIISBfac        ....   1.050
   Max. coefficient     DIISMaxC        ....  10.000
 Newton-Raphson         CNVNR           .... off
 SOSCF                  CNVSOSCF        .... on
   Start iteration      SOSCFMaxIt      ....   150
   Startup grad/error   SOSCFStart      ....  0.003300
 Level Shifting         CNVShift        .... on
   Level shift para.    LevelShift      ....    0.2500
   Turn off err/grad.   ShiftErr        ....    0.0010
 Zerner damping         CNVZerner       .... off
 Static damping         CNVDamp         .... on
   Fraction old density DampFac         ....    0.7000
   Max. Damping (<1)    DampMax         ....    0.9800
   Min. Damping (>=0)   DampMin         ....    0.0000
   Turn off err/grad.   DampErr         ....    0.1000
 Fernandez-Rico         CNVRico         .... off

SCF Procedure:
 Maximum # iterations   MaxIter         ....   125
 SCF integral mode      SCFMode         .... Conventional
 Integral Buffer length BufferLength    .... 1048576
 Integral index format  IndFormat       ....     0
 Integral value format  ValFormat       ....     0
 Integral Storage       Thresh          ....  1.000e-08 Eh

Convergence Tolerance:
 Convergence Check Mode ConvCheckMode   .... Total+1el-Energy
 Energy Change          TolE            ....  1.000e-06 Eh
 1-El. energy change                    ....  1.000e-03 Eh
 Orbital Gradient       TolG            ....  5.000e-05
 Orbital Rotation angle TolX            ....  5.000e-05
 DIIS Error             TolErr          ....  1.000e-06


Diagonalization of the overlap matrix:
Smallest eigenvalue                        ... 1.691e-01
Time for diagonalization                   ...    0.003 sec
Threshold for overlap eigenvalues          ... 1.000e-08
Number of eigenvalues below threshold      ... 0
Time for construction of square roots      ...    0.001 sec
Total time needed                          ...    0.004 sec

-------------------------------
INITIAL GUESS: EXTENDED HUECKEL
-------------------------------
EHT matrix was read from disk
EHT matrix was diagonalized
Initial density was built
                      ------------------
                      INITIAL GUESS DONE
                      ------------------

 InCore treatment chosen:
   Memory dedicated               ...    1024 MB
   Memory needed                  ...      0 MB
   Number of tiny    integrals    ...       0
   Number of small   integrals    ...       0
   Number of regular integrals    ...    7392

--------------
SCF ITERATIONS
--------------
ITER       Energy         Delta-E        Max-DP      RMS-DP      [F,P]     Damp
  0    -20.8078335373   0.000000000000 0.04170482  0.00147357  0.1237257 0.7000
  1    -20.8509886079  -0.043155070583 0.03922962  0.00139018  0.0848152 0.7000
                               ***Turning on DIIS***
  2    -20.8828820486  -0.031893440782 0.09841056  0.00356900  0.0525401 0.0000
  3    -20.9667020839  -0.083820035293 0.02152835  0.00073462  0.0225990 0.0000
  4    -20.9499069957   0.016795088203 0.01219857  0.00051170  0.0077125 0.0000
  5    -20.9680865206  -0.018179524877 0.00804142  0.00034767  0.0042930 0.0000
  6    -20.9700791118  -0.001992591167 0.00605052  0.00024830  0.0022596 0.0000
                      *** Initiating the SOSCF procedure ***
                           *** Shutting down DIIS ***
                      *** Re-Reading the Fockian *** 
                      *** Removing any level shift *** 
ITER      Energy       Delta-E        Grad      Rot      Max-DP    RMS-DP
  7    -20.96640944   0.0036696713  0.003200  0.003200  0.003737  0.000142
  8    -20.96457477   0.0018346682  0.000937  0.002660  0.001970  0.000068
  9    -20.96459190  -0.0000171325  0.000412  0.002657  0.002317  0.000075
 10    -20.96459849  -0.0000065866  0.000043  0.000087  0.000127  0.000005
                 **** Energy Check signals convergence ****
              ***Rediagonalizing the Fockian in SOSCF/NRSCF***

               *****************************************************
               *                     SUCCESS                       *
               *           SCF CONVERGED AFTER  11 CYCLES          *
               *****************************************************


----------------
TOTAL SCF ENERGY
----------------

Total Energy       :          -20.96459856 Eh            -570.47573 eV

Components:
Nuclear Repulsion  :          672.00511549 Eh           18286.18884 eV
Electronic Energy  :         -692.96971405 Eh          -18856.66457 eV

One Electron Energy:        -1295.60216228 Eh          -35255.12717 eV
Two Electron Energy:          602.63244823 Eh           16398.46260 eV


---------------
SCF CONVERGENCE
---------------

  Last Energy change         ...   -6.9397e-08  Tolerance :   1.0000e-06
  Last MAX-Density change    ...    6.9116e-05  Tolerance :   1.0000e-05
  Last RMS-Density change    ...    1.8066e-06  Tolerance :   1.0000e-06
  Last Orbital Gradient      ...    2.2341e-05  Tolerance :   5.0000e-05
  Last Orbital Rotation      ...    3.8760e-05  Tolerance :   5.0000e-05

             **** THE GBW FILE WAS UPDATED (/Users/mattyjones/GoogleDrive/Boise/Code/MorphCT/tests/output_EZ/donor_polymer/chromophores/input_orca/pair/00011-00023.gbw) ****
             **** DENSITY FILE WAS UPDATED (/Users/mattyjones/GoogleDrive/Boise/Code/MorphCT/tests/output_EZ/donor_polymer/chromophores/input_orca/pair/00011-00023.scfp.tmp) ****
             **** ENERGY FILE WAS UPDATED (/Users/mattyjones/GoogleDrive/Boise/Code/MorphCT/tests/output_EZ/donor_polymer/chromophores/input_orca/pair/00011-00023.en.tmp) ****
----------------
ORBITAL ENERGIES
----------------

  NO   OCC          E(Eh)            E(eV) 
   0   2.0000      -1.558895       -42.4197 
   1   2.0000      -1.556791       -42.3624 
   2   2.0000      -1.415677       -38.5225 
   3   2.0000      -1.390818       -37.8461 
   4   2.0000      -1.289715       -35.0949 
   5   2.0000      -1.274245       -34.6740 
   6   2.0000      -1.180175       -32.1142 
   7   2.0000      -1.175885       -31.9975 
   8   2.0000      -1.112850       -30.2822 
   9   2.0000      -1.111491       -30.2452 
  10   2.0000      -1.054650       -28.6985 
  11   2.0000      -1.041773       -28.3481 
  12   2.0000      -0.970280       -26.4026 
  13   2.0000      -0.969791       -26.3894 
  14   2.0000      -0.906740       -24.6736 
  15   2.0000      -0.893124       -24.3031 
  16   2.0000      -0.863153       -23.4876 
  17   2.0000      -0.846534       -23.0354 
  18   2.0000      -0.829055       -22.5597 
  19   2.0000      -0.821780       -22.3618 
  20   2.0000      -0.778900       -21.1950 
  21   2.0000      -0.775027       -21.0896 
  22   2.0000      -0.726164       -19.7599 
  23   2.0000      -0.723489       -19.6871 
  24   2.0000      -0.704315       -19.1654 
  25   2.0000      -0.692647       -18.8479 
  26   2.0000      -0.664368       -18.0784 
  27   2.0000      -0.656048       -17.8520 
  28   2.0000      -0.648613       -17.6497 
  29   2.0000      -0.639800       -17.4099 
  30   2.0000      -0.636931       -17.3318 
  31   2.0000      -0.613166       -16.6851 
  32   2.0000      -0.584836       -15.9142 
  33   2.0000      -0.584414       -15.9027 
  34   2.0000      -0.580245       -15.7893 
  35   2.0000      -0.578325       -15.7370 
  36   2.0000      -0.575902       -15.6711 
  37   2.0000      -0.562054       -15.2943 
  38   2.0000      -0.560441       -15.2504 
  39   2.0000      -0.551700       -15.0125 
  40   2.0000      -0.538108       -14.6427 
  41   2.0000      -0.527852       -14.3636 
  42   2.0000      -0.525234       -14.2924 
  43   2.0000      -0.521698       -14.1961 
  44   2.0000      -0.508060       -13.8250 
  45   2.0000      -0.503584       -13.7032 
  46   2.0000      -0.499000       -13.5785 
  47   2.0000      -0.493987       -13.4421 
  48   2.0000      -0.491298       -13.3689 
  49   2.0000      -0.482162       -13.1203 
  50   2.0000      -0.477927       -13.0051 
  51   2.0000      -0.464745       -12.6463 
  52   2.0000      -0.463317       -12.6075 
  53   2.0000      -0.462430       -12.5834 
  54   2.0000      -0.460839       -12.5401 
  55   2.0000      -0.458188       -12.4679 
  56   2.0000      -0.440213       -11.9788 
  57   2.0000      -0.433971       -11.8089 
  58   2.0000      -0.356340        -9.6965 
  59   2.0000      -0.349738        -9.5169 
  60   2.0000      -0.305000        -8.2995 
  61   2.0000      -0.304147        -8.2763 
  62   0.0000       0.002694         0.0733 
  63   0.0000       0.008162         0.2221 
  64   0.0000       0.060456         1.6451 
  65   0.0000       0.065859         1.7921 
  66   0.0000       0.071619         1.9488 
  67   0.0000       0.075658         2.0588 
  68   0.0000       0.086141         2.3440 
  69   0.0000       0.086731         2.3601 
  70   0.0000       0.105341         2.8665 
  71   0.0000       0.105733         2.8771 
  72   0.0000       0.107292         2.9196 
  73   0.0000       0.108756         2.9594 
  74   0.0000       0.122139         3.3236 
  75   0.0000       0.128884         3.5071 
  76   0.0000       0.140687         3.8283 
  77   0.0000       0.141920         3.8618 
  78   0.0000       0.156064         4.2467 
  79   0.0000       0.159729         4.3464 
  80   0.0000       0.164902         4.4872 
  81   0.0000       0.166476         4.5300 
  82   0.0000       0.172714         4.6998 
  83   0.0000       0.174071         4.7367 
  84   0.0000       0.198164         5.3923 
  85   0.0000       0.204735         5.5711 
  86   0.0000       0.233395         6.3510 
  87   0.0000       0.233961         6.3664 
  88   0.0000       0.234385         6.3779 
  89   0.0000       0.235203         6.4002 
  90   0.0000       0.236687         6.4406 
  91   0.0000       0.237221         6.4551 
  92   0.0000       0.239099         6.5062 
  93   0.0000       0.239127         6.5070 
  94   0.0000       0.240784         6.5521 
  95   0.0000       0.241019         6.5584 
  96   0.0000       0.242070         6.5871 
  97   0.0000       0.243152         6.6165 
  98   0.0000       0.243450         6.6246 
  99   0.0000       0.245468         6.6795 
 100   0.0000       0.245888         6.6910 
 101   0.0000       0.247090         6.7237 
 102   0.0000       0.258117         7.0237 
 103   0.0000       0.260607         7.0915 
 104   0.0000       0.266135         7.2419 
 105   0.0000       0.267081         7.2677 
 106   0.0000       0.276950         7.5362 
 107   0.0000       0.285296         7.7633 
 108   0.0000       0.302175         8.2226 
 109   0.0000       0.304113         8.2753 
 110   0.0000       0.310297         8.4436 
 111   0.0000       0.310323         8.4443 
 112   0.0000       0.337602         9.1866 
 113   0.0000       0.342061         9.3080 
 114   0.0000       0.351378         9.5615 
 115   0.0000       0.355716         9.6795 
 116   0.0000       0.412960        11.2372 
 117   0.0000       0.415067        11.2946 
 118   0.0000       0.427911        11.6441 
 119   0.0000       0.431349        11.7376 
-------
TIMINGS
-------

Total SCF time: 0 days 0 hours 0 min 0 sec 

Total time                  ....       0.123 sec
Sum of individual times     ....       0.099 sec  ( 80.7%)

Fock matrix formation       ....       0.049 sec  ( 39.6%)
Diagonalization             ....       0.027 sec  ( 21.5%)
Density matrix formation    ....       0.005 sec  (  4.2%)
Population analysis         ....       0.000 sec  (  0.0%)
Initial guess               ....       0.003 sec  (  2.5%)
Orbital Transformation      ....       0.000 sec  (  0.0%)
Orbital Orthonormalization  ....       0.000 sec  (  0.0%)
DIIS solution               ....       0.010 sec  (  7.8%)
SOSCF solution              ....       0.006 sec  (  5.0%)

-------------------------   --------------------
FINAL SINGLE POINT ENERGY       -20.964598560784
-------------------------   --------------------


                            ***************************************
                            *     ORCA property calculations      *
                            ***************************************

                                    ---------------------
                                    Active property flags
                                    ---------------------
   (+) Dipole Moment


------------------------------------------------------------------------------
                       ORCA ELECTRIC PROPERTIES CALCULATION
------------------------------------------------------------------------------

Dipole Moment Calculation                       ... on
Quadrupole Moment Calculation                   ... off
Polarizability Calculation                      ... off
GBWName                                         ... /Users/mattyjones/GoogleDrive/Boise/Code/MorphCT/tests/output_EZ/donor_polymer/chromophores/input_orca/pair/00011-00023.gbw
Electron density file                           ... /Users/mattyjones/GoogleDrive/Boise/Code/MorphCT/tests/output_EZ/donor_polymer/chromophores/input_orca/pair/00011-00023.scfp.tmp

-------------
DIPOLE MOMENT
-------------
                                X             Y             Z
Electronic contribution:     17.20684     -96.38471     -15.21704
Nuclear contribution   :     -7.24860      52.95250       7.68014
                        -----------------------------------------
Total Dipole Moment    :      9.95824     -43.43221      -7.53691
                        -----------------------------------------
Magnitude (a.u.)       :     45.19212
Magnitude (Debye)      :    114.86925


Timings for individual modules:

Sum of individual times         ...        0.209 sec (=   0.003 min)
STO integral calculation        ...        0.047 sec (=   0.001 min)  22.3 %
SCF iterations                  ...        0.162 sec (=   0.003 min)  77.7 %
                             ****ORCA TERMINATED NORMALLY****
TOTAL RUN TIME: 0 days 0 hours 0 minutes 0 seconds 553 msec

