
                                 *****************
                                 * O   R   C   A *
                                 *****************

           --- An Ab Initio, DFT and Semiempirical electronic structure package ---

                  #######################################################
                  #                        -***-                        #
                  #  Department of molecular theory and spectroscopy    #
                  #              Directorship: Frank Neese              #
                  # Max Planck Institute for Chemical Energy Conversion #
                  #                  D-45470 Muelheim/Ruhr              #
                  #                       Germany                       #
                  #                                                     #
                  #                  All rights reserved                #
                  #                        -***-                        #
                  #######################################################


                         Program Version 3.0.3 - RELEASE   -


 With contributions from (in alphabetic order):
   Ute Becker             : Parallelization
   Dmytro Bykov           : SCF Hessian
   Dmitry Ganyushin       : Spin-Orbit,Spin-Spin,Magnetic field MRCI
   Andreas Hansen         : Spin unrestricted coupled pair/coupled cluster methods
   Dimitrios Liakos       : Extrapolation schemes; parallel MDCI
   Robert Izsak           : Overlap fitted RIJCOSX, COSX-SCS-MP3
   Christian Kollmar      : KDIIS, OOCD, Brueckner-CCSD(T), CCSD density
   Simone Kossmann        : Meta GGA functionals, TD-DFT gradient, OOMP2, MP2 Hessian
   Taras Petrenko         : DFT Hessian,TD-DFT gradient, ASA and ECA modules, normal mode analysis, Resonance Raman, ABS, FL, XAS/XES, NRVS
   Christoph Reimann      : Effective Core Potentials
   Michael Roemelt        : Restricted open shell CIS
   Christoph Riplinger    : Improved optimizer, TS searches, QM/MM, DLPNO-CCSD
   Barbara Sandhoefer     : DKH picture change effects
   Igor Schapiro          : Molecular dynamics
   Kantharuban Sivalingam : CASSCF convergence, NEVPT2
   Boris Wezisla          : Elementary symmetry handling
   Frank Wennmohs         : Technical directorship


 We gratefully acknowledge several colleagues who have allowed us to
 interface, adapt or use parts of their codes:
   Stefan Grimme, W. Hujo, H. Kruse, T. Risthaus : VdW corrections, initial TS optimization,
                                                   DFT functionals, gCP
   Ed Valeev                                     : LibInt (2-el integral package), F12 methods
   Garnet Chan, S. Sharma, R. Olivares           : DMRG
   Ulf Ekstrom                                   : XCFun DFT Library
   Mihaly Kallay                                 : mrcc  (arbitrary order and MRCC methods)
   Andreas Klamt, Michael Diedenhofen            : otool_cosmo (COSMO solvation model)
   Frank Weinhold                                : gennbo (NPA and NBO analysis)
   Christopher J. Cramer and Donald G. Truhlar   : smd solvation model


 Your calculation uses the libint2 library for the computation of 2-el integrals
 For citations please refer to: http://libint.valeyev.net

 This ORCA versions uses:
   CBLAS   interface :  Fast vector & matrix operations
   LAPACKE interface :  Fast linear algebra routines
   SCALAPACK package :  Parallel linear algebra routines


leaving
================================================================================
                                        WARNINGS
                       Please study these warnings very carefully!
================================================================================
Now building the actual basis set

WARNING: Direct SCF is incompatible with Method<>HF and Method<>DFT
  ===> : conventional SCF is chosen

WARNING: The NDO methods need Guess=HUECKEL or Guess=HCORE or Guess=MOREAD
  ===> : Guess is set to Hueckel

WARNING: The NDO methods need %rel::SOCType==1
  ===> : %rel::SOCType is set to 1

WARNING: The NDO methods cannot have frozencore=1
  ===> : %method FrozenCore=0 end


INFO   : the flag for use of LIBINT has been found!

================================================================================
                                       INPUT FILE
================================================================================
NAME = /Users/mattyjones/GoogleDrive/Boise/Code/MorphCT/tests/output_EZ/donor_polymer/chromophores/input_orca/pair/00012-00015.inp
|  1> # ================================================================
|  2> # Orca input file made by Matty Jones
|  3> # ================================================================
|  4> ! ZINDO/S 
|  5> ! NOPOP
|  6> ! NOMOPRINT
|  7> * xyz 0   1
|  8>  C  21.53891  8.13954  12.81826
|  9>  C  21.23915  6.77719  12.77306
| 10>  C  21.53503  6.07383  13.98219
| 11>  C  22.07113  6.88488  14.98723
| 12>  S  22.14974  8.40813  14.33610
| 13>  H  20.80722  6.24764  11.84615
| 14>  C  21.22828  4.48738  14.07475
| 15>  C  20.87876  3.59560  15.48351
| 16>  C  19.34534  3.41734  16.18228
| 17>  H  19.48967  3.31159  17.32470
| 18>  H  18.74245  4.37839  15.96952
| 19>  H  21.13768  2.50218  15.14385
| 20>  H  21.61498  3.83485  16.30660
| 21>  H  22.15675  3.93271  13.61644
| 22>  H  20.32059  4.25400  13.37749
| 23>  C  18.55395  2.11727  15.60530
| 24>  C  18.93732  0.63616  16.33401
| 25>  C  17.95277  0.15517  17.61000
| 26>  H  18.48247  0.38481  18.61284
| 27>  H  17.75836  -0.98390  17.52811
| 28>  H  16.94537  0.72163  17.56246
| 29>  H  20.01871  0.70688  16.72847
| 30>  H  18.88327  -0.17683  15.51791
| 31>  H  17.41583  2.27966  15.74470
| 32>  H  18.77061  2.00850  14.47414
| 33>  C  -18.62225  0.00421  -16.86135
| 34>  C  -18.62194  -1.13176  -16.05050
| 35>  C  -18.54340  -0.85007  -14.65095
| 36>  C  -18.48139  0.51521  -14.35518
| 37>  S  -18.52637  1.29107  -15.82025
| 38>  H  -18.26893  -2.13250  -16.49313
| 39>  C  -18.57704  -2.21998  -13.77719
| 40>  C  -19.92948  -3.13185  -14.44487
| 41>  C  -20.68605  -4.66493  -14.28604
| 42>  H  -21.81823  -4.48344  -14.16584
| 43>  H  -20.26879  -5.15875  -13.33364
| 44>  H  -19.71773  -3.16925  -15.57668
| 45>  H  -20.80478  -2.39770  -14.24928
| 46>  H  -18.77074  -2.01129  -12.66162
| 47>  H  -17.61726  -2.84271  -13.91880
| 48>  C  -20.42674  -5.64250  -15.57589
| 49>  C  -21.20565  -7.15149  -15.59662
| 50>  C  -22.70537  -7.24138  -16.36594
| 51>  H  -23.53390  -7.38890  -15.57171
| 52>  H  -22.70533  -8.14387  -17.09217
| 53>  H  -22.90328  -6.26885  -16.95905
| 54>  H  -21.35400  -7.47855  -14.50143
| 55>  H  -20.50078  -7.89481  -16.12651
| 56>  H  -19.29227  -5.85135  -15.66318
| 57>  H  -20.77086  -5.08783  -16.53368
| 58>  H  21.40443  8.85223  12.04523
| 59>  H  22.36563  6.58822  15.96133
| 60>  H  -18.67308  0.03728  -17.91962
| 61>  H  -18.41876  0.96094  -13.39549
| 62> *
| 63> 
| 64>                          ****END OF INPUT****
================================================================================

                       ****************************
                       * Single Point Calculation *
                       ****************************

---------------------------------
CARTESIAN COORDINATES (ANGSTROEM)
---------------------------------
  C     21.538910    8.139540   12.818260
  C     21.239150    6.777190   12.773060
  C     21.535030    6.073830   13.982190
  C     22.071130    6.884880   14.987230
  S     22.149740    8.408130   14.336100
  H     20.807220    6.247640   11.846150
  C     21.228280    4.487380   14.074750
  C     20.878760    3.595600   15.483510
  C     19.345340    3.417340   16.182280
  H     19.489670    3.311590   17.324700
  H     18.742450    4.378390   15.969520
  H     21.137680    2.502180   15.143850
  H     21.614980    3.834850   16.306600
  H     22.156750    3.932710   13.616440
  H     20.320590    4.254000   13.377490
  C     18.553950    2.117270   15.605300
  C     18.937320    0.636160   16.334010
  C     17.952770    0.155170   17.610000
  H     18.482470    0.384810   18.612840
  H     17.758360   -0.983900   17.528110
  H     16.945370    0.721630   17.562460
  H     20.018710    0.706880   16.728470
  H     18.883270   -0.176830   15.517910
  H     17.415830    2.279660   15.744700
  H     18.770610    2.008500   14.474140
  C    -18.622250    0.004210  -16.861350
  C    -18.621940   -1.131760  -16.050500
  C    -18.543400   -0.850070  -14.650950
  C    -18.481390    0.515210  -14.355180
  S    -18.526370    1.291070  -15.820250
  H    -18.268930   -2.132500  -16.493130
  C    -18.577040   -2.219980  -13.777190
  C    -19.929480   -3.131850  -14.444870
  C    -20.686050   -4.664930  -14.286040
  H    -21.818230   -4.483440  -14.165840
  H    -20.268790   -5.158750  -13.333640
  H    -19.717730   -3.169250  -15.576680
  H    -20.804780   -2.397700  -14.249280
  H    -18.770740   -2.011290  -12.661620
  H    -17.617260   -2.842710  -13.918800
  C    -20.426740   -5.642500  -15.575890
  C    -21.205650   -7.151490  -15.596620
  C    -22.705370   -7.241380  -16.365940
  H    -23.533900   -7.388900  -15.571710
  H    -22.705330   -8.143870  -17.092170
  H    -22.903280   -6.268850  -16.959050
  H    -21.354000   -7.478550  -14.501430
  H    -20.500780   -7.894810  -16.126510
  H    -19.292270   -5.851350  -15.663180
  H    -20.770860   -5.087830  -16.533680
  H     21.404430    8.852230   12.045230
  H     22.365630    6.588220   15.961330
  H    -18.673080    0.037280  -17.919620
  H    -18.418760    0.960940  -13.395490

----------------------------
CARTESIAN COORDINATES (A.U.)
----------------------------
  NO LB      ZA    FRAG    MASS        X           Y           Z
   0 C     4.0000    0    12.011         40.702641123177791         15.381501456097386         24.223000913397424
   1 C     4.0000    0    12.011         40.136176817273551         12.807033057549768         24.137585292144180
   2 C     4.0000    0    12.011         40.695308985778169         11.477875283994916         26.422509852452386
   3 C     4.0000    0    12.011         41.708391166173357         13.010537664911746         28.321760206088602
   4 S     6.0000    0    32.060         41.856942537560904         15.889062998407294         27.091302828508457
   5 H     1.0000    0     1.008         39.319947408248950         11.806328583331767         22.385979241351237
   6 C     4.0000    0    12.011         40.115635494197832          8.479919258835546         26.597422903408138
   7 C     4.0000    0    12.011         39.455138415869669          6.794699287127253         29.259593491831041
   8 C     4.0000    0    12.011         36.557394567592148          6.457836706494450         30.580077422431192
   9 H     1.0000    0     1.008         36.830138740500999          6.257998167832278         32.738938352345507
  10 H     1.0000    0     1.008         35.418097578712363          8.273958007499468         30.178019290178106
  11 H     1.0000    0     1.008         39.944426306464564          4.728434937775077         28.617729113183348
  12 H     1.0000    0     1.008         40.846392590185175          7.246816264667912         30.815008175400280
  13 H     1.0000    0     1.008         41.870189517759691          7.431744864133446         25.731342518970688
  14 H     1.0000    0     1.008         38.400349979698845          8.038894973701003         25.279792459270205
  15 C     4.0000    0    12.011         35.061884202468207          4.001060451567448         29.489743237681306
  16 C     4.0000    0    12.011         35.786348510429598          1.202168177355343         30.866805568731063
  17 C     4.0000    0    12.011         33.925818645277431          0.293228804200561         33.278077218353239
  18 H     1.0000    0     1.008         34.926806578415516          0.727185513594237         35.173170174494828
  19 H     1.0000    0     1.008         33.558436987581800         -1.859301543165119         33.123327545246433
  20 H     1.0000    0     1.008         32.022108537965160          1.363683070021593         33.188239637946630
  21 H     1.0000    0     1.008         37.829879454390699          1.335809609546254         31.612226939517644
  22 H     1.0000    0     1.008         35.684208812891150         -0.334160272261295         29.324600070837931
  23 H     1.0000    0     1.008         32.911149094929755          4.307933078454920         29.753171060749931
  24 H     1.0000    0     1.008         35.471312266643586          3.795514939980834         27.352160624034944
  25 C     4.0000    0    12.011        -35.190952497415033          0.007955747023808        -31.863333748193099
  26 C     4.0000    0    12.011        -35.190366682313510         -2.138716449326716        -30.331049312503048
  27 C     4.0000    0    12.011        -35.041947591755331         -1.606399494662438        -27.686283101773562
  28 C     4.0000    0    12.011        -34.924765674190880          0.973605801457568        -27.127358803143675
  29 S     6.0000    0    32.060        -35.009765555694656          2.439768719721710        -29.895939870167680
  30 H     1.0000    0     1.008        -34.523274459777973         -4.029840980587069        -31.167498791160615
  31 C     4.0000    0    12.011        -35.105517978900451         -4.195154222782500        -26.035115994998527
  32 C     4.0000    0    12.011        -37.661259191460907         -5.918338792521272        -27.296848340095071
  33 C     4.0000    0    12.011        -39.090969292601713         -8.815440133913265        -26.996703138244357
  34 H     1.0000    0     1.008        -41.230479426904672         -8.472473737867896        -26.769558056947023
  35 H     1.0000    0     1.008        -38.302462165961728         -9.748624693366258        -25.196927968297761
  36 H     1.0000    0     1.008        -37.261109682603077         -5.989014549929927        -29.435659275728483
  37 H     1.0000    0     1.008        -39.315336476482180         -4.530996351302985        -26.927236805561414
  38 H     1.0000    0     1.008        -35.471557931040998         -3.800787275894474        -23.926994211779999
  39 H     1.0000    0     1.008        -33.291796630085514         -5.371943378159281        -26.302720112823117
  40 C     4.0000    0    12.011        -38.600944408814584        -10.662779710650662        -29.434166392082684
  41 C     4.0000    0    12.011        -40.072870991787191        -13.514357549476491        -29.473340414838873
  42 C     4.0000    0    12.011        -42.906931069351565        -13.684225031654673        -30.927144524187167
  43 H     1.0000    0     1.008        -44.472625863089341        -13.962997430930736        -29.426267336842894
  44 H     1.0000    0     1.008        -42.906855480306213        -15.389683970257263        -32.299520334424798
  45 H     1.0000    0     1.008        -43.280926768515926        -11.846409674632238        -32.047959991477207
  46 H     1.0000    0     1.008        -40.353211863754403        -14.132411378836776        -27.403731250229654
  47 H     1.0000    0     1.008        -38.740859731770115        -14.919028779342836        -30.474687395942404
  48 H     1.0000    0     1.008        -36.457106801664942        -11.057449013720117        -29.599120586312672
  49 H     1.0000    0     1.008        -39.251236966019569         -9.614605315948562        -31.244127185891120
  50 H     1.0000    0     1.008         40.448510752688058         16.728290374481723         22.762185920092278
  51 H     1.0000    0     1.008         42.264915512613165         12.449931510022669         30.162542433141294
  52 H     1.0000    0     1.008        -35.287007276802242          0.070448990272584        -33.863174223937939
  53 H     1.0000    0     1.008        -34.806412126423389          1.815913431130288        -25.313807529680787

--------------------------------
INTERNAL COORDINATES (ANGSTROEM)
--------------------------------
 C      0   0   0   0.000000     0.000     0.000
 C      1   0   0   1.395671     0.000     0.000
 C      2   1   0   1.429775   114.102     0.000
 C      3   2   1   1.398324   113.693     0.000
 S      1   2   3   1.658039   105.480     0.000
 H      2   1   3   1.151585   123.745   180.942
 C      3   2   1   1.618483   119.429   179.596
 C      7   3   2   1.703538   126.820   207.233
 C      8   7   3   1.694530   125.574    85.557
 H      9   8   7   1.156347   107.702   211.259
 H      9   8   7   1.154279   108.002   328.692
 H      8   7   3   1.173872   101.717   200.755
 H      8   7   3   1.129928   110.969   312.380
 H      7   3   2   1.174633   106.902    84.702
 H      7   3   2   1.168135   107.997   330.242
 C      9   8   7   1.627693   112.199    90.376
 C     16   9   8   1.694603   115.828    83.104
 C     17  16   9   1.681916   116.344    93.609
 H     18  17  16   1.157154   109.437   259.423
 H     18  17  16   1.158439   109.014   139.730
 H     18  17  16   1.156716   109.791    19.881
 H     17  16   9   1.153258   107.795   332.366
 H     17  16   9   1.153210   107.533   214.719
 H     16   9   8   1.158067   108.854   203.729
 H     16   9   8   1.156847   109.308   321.911
 C     24  16   9  48.652599   129.847   126.091
 C     26  24  16   1.395674    69.424   104.566
 C     27  26  24   1.429776   114.101    48.845
 C     28  27  26   1.398326   113.693     0.000
 S     26  24  16   1.658038    60.003   227.652
 H     27  26  24   1.149790   119.001   252.833
 C     28  27  26   1.625190   111.043   178.910
 C     32  28  27   1.762497   104.378   311.925
 C     33  32  28   1.716962   139.911   175.103
 H     34  33  32   1.152917   107.566   130.867
 H     34  33  32   1.151099   107.449    12.813
 H     33  32  28   1.152055   104.355    52.891
 H     33  32  28   1.159043   100.828   299.895
 H     32  28  27   1.151333   111.816   193.793
 H     32  28  27   1.152833   111.842    68.712
 C     34  33  32   1.639084   112.956   251.629
 C     41  34  33   1.698288   117.838   184.043
 C     42  41  34   1.687926   117.412    92.546
 H     43  42  41   1.157163   109.277   250.385
 H     43  42  41   1.158403   109.099   130.901
 H     43  42  41   1.156184   109.944    10.812
 H     42  41  34   1.152570   107.432   331.125
 H     42  41  34   1.153321   107.335   213.549
 H     41  34  33   1.156832   108.796    62.421
 H     41  34  33   1.159068   108.536   304.692
 H      1   2   3   1.059994   127.260   180.000
 H      4   3   2   1.060004   127.206   180.000
 H     26  24  16   1.060006   134.680   342.002
 H     29  28  27   1.060001   127.206   179.999

---------------------------
INTERNAL COORDINATES (A.U.)
---------------------------
 C      0   0   0   0.000000     0.000     0.000
 C      1   0   0   2.637435     0.000     0.000
 C      2   1   0   2.701883   114.102     0.000
 C      3   2   1   2.642450   113.693     0.000
 S      1   2   3   3.133239   105.480     0.000
 H      2   1   3   2.176181   123.745   180.942
 C      3   2   1   3.058489   119.429   179.596
 C      7   3   2   3.219220   126.820   207.233
 C      8   7   3   3.202198   125.574    85.557
 H      9   8   7   2.185179   107.702   211.259
 H      9   8   7   2.181271   108.002   328.692
 H      8   7   3   2.218297   101.717   200.755
 H      8   7   3   2.135255   110.969   312.380
 H      7   3   2   2.219735   106.902    84.702
 H      7   3   2   2.207455   107.997   330.242
 C      9   8   7   3.075895   112.199    90.376
 C     16   9   8   3.202335   115.828    83.104
 C     17  16   9   3.178360   116.344    93.609
 H     18  17  16   2.186704   109.437   259.423
 H     18  17  16   2.189133   109.014   139.730
 H     18  17  16   2.185876   109.791    19.881
 H     17  16   9   2.179342   107.795   332.366
 H     17  16   9   2.179251   107.533   214.719
 H     16   9   8   2.188430   108.854   203.729
 H     16   9   8   2.186124   109.308   321.911
 C     24  16   9  91.940088   129.847   126.091
 C     26  24  16   2.637441    69.424   104.566
 C     27  26  24   2.701884   114.101    48.845
 C     28  27  26   2.642453   113.693     0.000
 S     26  24  16   3.133238    60.003   227.652
 H     27  26  24   2.172789   119.001   252.833
 C     28  27  26   3.071163   111.043   178.910
 C     32  28  27   3.330638   104.378   311.925
 C     33  32  28   3.244588   139.911   175.103
 H     34  33  32   2.178698   107.566   130.867
 H     34  33  32   2.175263   107.449    12.813
 H     33  32  28   2.177068   104.355    52.891
 H     33  32  28   2.190275   100.828   299.895
 H     32  28  27   2.175704   111.816   193.793
 H     32  28  27   2.178538   111.842    68.712
 C     34  33  32   3.097421   112.956   251.629
 C     41  34  33   3.209299   117.838   184.043
 C     42  41  34   3.189718   117.412    92.546
 H     43  42  41   2.186721   109.277   250.385
 H     43  42  41   2.189065   109.099   130.901
 H     43  42  41   2.184872   109.944    10.812
 H     42  41  34   2.178041   107.432   331.125
 H     42  41  34   2.179461   107.335   213.549
 H     41  34  33   2.186095   108.796    62.421
 H     41  34  33   2.190321   108.536   304.692
 H      1   2   3   2.003098   127.260   180.000
 H      4   3   2   2.003117   127.206   180.000
 H     26  24  16   2.003121   134.680   342.002
 H     29  28  27   2.003112   127.206   179.999

----------------------------
SLATER BASIS SET DIM= 120
----------------------------
  0 C     2 shells
 l=0 nsto= 1
    2       1.625000000000        1.000000000000
 l=1 nsto= 1
    2       1.625000000000        1.000000000000
  1 C     2 shells
 l=0 nsto= 1
    2       1.625000000000        1.000000000000
 l=1 nsto= 1
    2       1.625000000000        1.000000000000
  2 C     2 shells
 l=0 nsto= 1
    2       1.625000000000        1.000000000000
 l=1 nsto= 1
    2       1.625000000000        1.000000000000
  3 C     2 shells
 l=0 nsto= 1
    2       1.625000000000        1.000000000000
 l=1 nsto= 1
    2       1.625000000000        1.000000000000
  4 S     2 shells
 l=0 nsto= 1
    3       1.925000000000        1.000000000000
 l=1 nsto= 1
    3       1.925000000000        1.000000000000
  5 H     1 shells
 l=0 nsto= 1
    1       1.200000000000        1.000000000000
  6 C     2 shells
 l=0 nsto= 1
    2       1.625000000000        1.000000000000
 l=1 nsto= 1
    2       1.625000000000        1.000000000000
  7 C     2 shells
 l=0 nsto= 1
    2       1.625000000000        1.000000000000
 l=1 nsto= 1
    2       1.625000000000        1.000000000000
  8 C     2 shells
 l=0 nsto= 1
    2       1.625000000000        1.000000000000
 l=1 nsto= 1
    2       1.625000000000        1.000000000000
  9 H     1 shells
 l=0 nsto= 1
    1       1.200000000000        1.000000000000
 10 H     1 shells
 l=0 nsto= 1
    1       1.200000000000        1.000000000000
 11 H     1 shells
 l=0 nsto= 1
    1       1.200000000000        1.000000000000
 12 H     1 shells
 l=0 nsto= 1
    1       1.200000000000        1.000000000000
 13 H     1 shells
 l=0 nsto= 1
    1       1.200000000000        1.000000000000
 14 H     1 shells
 l=0 nsto= 1
    1       1.200000000000        1.000000000000
 15 C     2 shells
 l=0 nsto= 1
    2       1.625000000000        1.000000000000
 l=1 nsto= 1
    2       1.625000000000        1.000000000000
 16 C     2 shells
 l=0 nsto= 1
    2       1.625000000000        1.000000000000
 l=1 nsto= 1
    2       1.625000000000        1.000000000000
 17 C     2 shells
 l=0 nsto= 1
    2       1.625000000000        1.000000000000
 l=1 nsto= 1
    2       1.625000000000        1.000000000000
 18 H     1 shells
 l=0 nsto= 1
    1       1.200000000000        1.000000000000
 19 H     1 shells
 l=0 nsto= 1
    1       1.200000000000        1.000000000000
 20 H     1 shells
 l=0 nsto= 1
    1       1.200000000000        1.000000000000
 21 H     1 shells
 l=0 nsto= 1
    1       1.200000000000        1.000000000000
 22 H     1 shells
 l=0 nsto= 1
    1       1.200000000000        1.000000000000
 23 H     1 shells
 l=0 nsto= 1
    1       1.200000000000        1.000000000000
 24 H     1 shells
 l=0 nsto= 1
    1       1.200000000000        1.000000000000
 25 C     2 shells
 l=0 nsto= 1
    2       1.625000000000        1.000000000000
 l=1 nsto= 1
    2       1.625000000000        1.000000000000
 26 C     2 shells
 l=0 nsto= 1
    2       1.625000000000        1.000000000000
 l=1 nsto= 1
    2       1.625000000000        1.000000000000
 27 C     2 shells
 l=0 nsto= 1
    2       1.625000000000        1.000000000000
 l=1 nsto= 1
    2       1.625000000000        1.000000000000
 28 C     2 shells
 l=0 nsto= 1
    2       1.625000000000        1.000000000000
 l=1 nsto= 1
    2       1.625000000000        1.000000000000
 29 S     2 shells
 l=0 nsto= 1
    3       1.925000000000        1.000000000000
 l=1 nsto= 1
    3       1.925000000000        1.000000000000
 30 H     1 shells
 l=0 nsto= 1
    1       1.200000000000        1.000000000000
 31 C     2 shells
 l=0 nsto= 1
    2       1.625000000000        1.000000000000
 l=1 nsto= 1
    2       1.625000000000        1.000000000000
 32 C     2 shells
 l=0 nsto= 1
    2       1.625000000000        1.000000000000
 l=1 nsto= 1
    2       1.625000000000        1.000000000000
 33 C     2 shells
 l=0 nsto= 1
    2       1.625000000000        1.000000000000
 l=1 nsto= 1
    2       1.625000000000        1.000000000000
 34 H     1 shells
 l=0 nsto= 1
    1       1.200000000000        1.000000000000
 35 H     1 shells
 l=0 nsto= 1
    1       1.200000000000        1.000000000000
 36 H     1 shells
 l=0 nsto= 1
    1       1.200000000000        1.000000000000
 37 H     1 shells
 l=0 nsto= 1
    1       1.200000000000        1.000000000000
 38 H     1 shells
 l=0 nsto= 1
    1       1.200000000000        1.000000000000
 39 H     1 shells
 l=0 nsto= 1
    1       1.200000000000        1.000000000000
 40 C     2 shells
 l=0 nsto= 1
    2       1.625000000000        1.000000000000
 l=1 nsto= 1
    2       1.625000000000        1.000000000000
 41 C     2 shells
 l=0 nsto= 1
    2       1.625000000000        1.000000000000
 l=1 nsto= 1
    2       1.625000000000        1.000000000000
 42 C     2 shells
 l=0 nsto= 1
    2       1.625000000000        1.000000000000
 l=1 nsto= 1
    2       1.625000000000        1.000000000000
 43 H     1 shells
 l=0 nsto= 1
    1       1.200000000000        1.000000000000
 44 H     1 shells
 l=0 nsto= 1
    1       1.200000000000        1.000000000000
 45 H     1 shells
 l=0 nsto= 1
    1       1.200000000000        1.000000000000
 46 H     1 shells
 l=0 nsto= 1
    1       1.200000000000        1.000000000000
 47 H     1 shells
 l=0 nsto= 1
    1       1.200000000000        1.000000000000
 48 H     1 shells
 l=0 nsto= 1
    1       1.200000000000        1.000000000000
 49 H     1 shells
 l=0 nsto= 1
    1       1.200000000000        1.000000000000
 50 H     1 shells
 l=0 nsto= 1
    1       1.200000000000        1.000000000000
 51 H     1 shells
 l=0 nsto= 1
    1       1.200000000000        1.000000000000
 52 H     1 shells
 l=0 nsto= 1
    1       1.200000000000        1.000000000000
 53 H     1 shells
 l=0 nsto= 1
    1       1.200000000000        1.000000000000
------------------------------------------------------------------------------
                           ORCA NDO INTEGRAL CALCULATION
------------------------------------------------------------------------------

--------------
NDO PARAMETERS
--------------

Gamma integral treatment              ... Mataga-Nishimoto
Nuclear repulsuion treatment          ... Direct (ZA*ZB/RAB)
Interaction factors:
s-s (sigma) =    1.0000
s-p (sigma) =    1.0000
s-d (sigma) =    1.0000
p-p (sigma) =    1.2670  p-p(pi) =    0.5850
p-d (sigma) =    1.0000  p-d(pi) =    1.0000
d-d (sigma) =    1.0000  d-d(pi) =    1.0000 d-d (delta) =    1.0000

fGamma parameter for Mataga-Nishimoto gamma integrals:    1.2000

--------------------------
Parameters for Element H :
--------------------------
 One-electron parameters (in eV)
  U(s)  =   -13.060000 Beta(s) =    12.000000 Neff(s) =     1.000000
 One-center electron repulsion parameters (in eV)
  G(s,s)=    12.850000
--------------------------
Parameters for Element C :
--------------------------
 One-electron parameters (in eV)
  U(s)  =   -50.870766 Beta(s) =    17.000000 Neff(s) =     2.000000
  U(p)  =   -41.599980 Beta(p) =    17.000000 Neff(p) =     2.000000 
 One-center electron repulsion parameters (in eV)
  G(s,s)=    11.110000
  G(s,p)=    11.110000 G(p,p)  =    11.110000
 Slater-Condon parameters (in eV)
 F2(p,p)=     4.5098 G1(s,p)=    6.8977
--------------------------
Parameters for Element S :
--------------------------
 One-electron parameters (in eV)
  U(s)  =   -69.509597 Beta(s) =    15.000000 Neff(s) =     2.000000
  U(p)  =   -60.725746 Beta(p) =    15.000000 Neff(p) =     4.000000 
 One-center electron repulsion parameters (in eV)
  G(s,s)=    10.090000
  G(s,p)=    10.090000 G(p,p)  =    10.090000
 Slater-Condon parameters (in eV)
 F2(p,p)=     4.5377 G1(s,p)=    3.0756

 Number of atoms                    ....   54
 Number of basis functions          ....  120

 Overlap integrals                  .... done
 One electron matrix                .... done
 Nuclear repulsion                  .... done
 Integral list                      .... done
 Electron-electron repulsion        .... done
-------------------------------------------------------------------------------
                                 ORCA SCF
-------------------------------------------------------------------------------

------------
SCF SETTINGS
------------
Hamiltonian:
 ZDO-Hamiltonian        Method          .... INDO


General Settings:
 Integral files         IntName         .... /Users/mattyjones/GoogleDrive/Boise/Code/MorphCT/tests/output_EZ/donor_polymer/chromophores/input_orca/pair/00012-00015
 Hartree-Fock type      HFTyp           .... RHF
 Total Charge           Charge          ....    0
 Multiplicity           Mult            ....    1
 Number of Electrons    NEL             ....  124
 Basis Dimension        Dim             ....  120
 Nuclear Repulsion      ENuc            ....    623.3988882322 Eh

Convergence Acceleration:
 DIIS                   CNVDIIS         .... on
   Start iteration      DIISMaxIt       ....    12
   Startup error        DIISStart       ....  0.200000
   # of expansion vecs  DIISMaxEq       ....     5
   Bias factor          DIISBfac        ....   1.050
   Max. coefficient     DIISMaxC        ....  10.000
 Newton-Raphson         CNVNR           .... off
 SOSCF                  CNVSOSCF        .... on
   Start iteration      SOSCFMaxIt      ....   150
   Startup grad/error   SOSCFStart      ....  0.003300
 Level Shifting         CNVShift        .... on
   Level shift para.    LevelShift      ....    0.2500
   Turn off err/grad.   ShiftErr        ....    0.0010
 Zerner damping         CNVZerner       .... off
 Static damping         CNVDamp         .... on
   Fraction old density DampFac         ....    0.7000
   Max. Damping (<1)    DampMax         ....    0.9800
   Min. Damping (>=0)   DampMin         ....    0.0000
   Turn off err/grad.   DampErr         ....    0.1000
 Fernandez-Rico         CNVRico         .... off

SCF Procedure:
 Maximum # iterations   MaxIter         ....   125
 SCF integral mode      SCFMode         .... Conventional
 Integral Buffer length BufferLength    .... 1048576
 Integral index format  IndFormat       ....     0
 Integral value format  ValFormat       ....     0
 Integral Storage       Thresh          ....  1.000e-08 Eh

Convergence Tolerance:
 Convergence Check Mode ConvCheckMode   .... Total+1el-Energy
 Energy Change          TolE            ....  1.000e-06 Eh
 1-El. energy change                    ....  1.000e-03 Eh
 Orbital Gradient       TolG            ....  5.000e-05
 Orbital Rotation angle TolX            ....  5.000e-05
 DIIS Error             TolErr          ....  1.000e-06


Diagonalization of the overlap matrix:
Smallest eigenvalue                        ... 1.693e-01
Time for diagonalization                   ...    0.003 sec
Threshold for overlap eigenvalues          ... 1.000e-08
Number of eigenvalues below threshold      ... 0
Time for construction of square roots      ...    0.001 sec
Total time needed                          ...    0.004 sec

-------------------------------
INITIAL GUESS: EXTENDED HUECKEL
-------------------------------
EHT matrix was read from disk
EHT matrix was diagonalized
Initial density was built
                      ------------------
                      INITIAL GUESS DONE
                      ------------------

 InCore treatment chosen:
   Memory dedicated               ...    1024 MB
   Memory needed                  ...      0 MB
   Number of tiny    integrals    ...       0
   Number of small   integrals    ...       0
   Number of regular integrals    ...    7392

--------------
SCF ITERATIONS
--------------
ITER       Energy         Delta-E        Max-DP      RMS-DP      [F,P]     Damp
  0    -21.2322496526   0.000000000000 0.04586000  0.00144606  0.1020350 0.7000
  1    -21.2741086753  -0.041859022642 0.04551628  0.00136515  0.0714810 0.7000
                               ***Turning on DIIS***
  2    -21.3050940134  -0.030985338131 0.12238497  0.00351482  0.0520506 0.0000
  3    -21.3861964432  -0.081102429824 0.02474120  0.00074977  0.0197280 0.0000
  4    -21.3703542585   0.015842184765 0.01721313  0.00051361  0.0092277 0.0000
  5    -21.3882307454  -0.017876486888 0.01210771  0.00034651  0.0055157 0.0000
  6    -21.3904872600  -0.002256514602 0.00862165  0.00024573  0.0032081 0.0000
                      *** Initiating the SOSCF procedure ***
                           *** Shutting down DIIS ***
                      *** Re-Reading the Fockian *** 
                      *** Removing any level shift *** 
ITER      Energy       Delta-E        Grad      Rot      Max-DP    RMS-DP
  7    -21.38663955   0.0038477098  0.003035  0.003035  0.005243  0.000139
  8    -21.38466647   0.0019730840  0.000855  0.002415  0.002667  0.000065
  9    -21.38468182  -0.0000153506  0.000375  0.002375  0.003057  0.000070
 10    -21.38468750  -0.0000056865  0.000042  0.000113  0.000242  0.000005
                 **** Energy Check signals convergence ****
              ***Rediagonalizing the Fockian in SOSCF/NRSCF***

               *****************************************************
               *                     SUCCESS                       *
               *           SCF CONVERGED AFTER  11 CYCLES          *
               *****************************************************


----------------
TOTAL SCF ENERGY
----------------

Total Energy       :          -21.38468757 Eh            -581.90693 eV

Components:
Nuclear Repulsion  :          623.39888823 Eh           16963.54616 eV
Electronic Energy  :         -644.78357580 Eh          -17545.45309 eV

One Electron Energy:        -1199.25696994 Eh          -32633.44120 eV
Two Electron Energy:          554.47339414 Eh           15087.98811 eV


---------------
SCF CONVERGENCE
---------------

  Last Energy change         ...   -6.5483e-08  Tolerance :   1.0000e-06
  Last MAX-Density change    ...    1.1304e-04  Tolerance :   1.0000e-05
  Last RMS-Density change    ...    1.8670e-06  Tolerance :   1.0000e-06
  Last Orbital Gradient      ...    1.7593e-05  Tolerance :   5.0000e-05
  Last Orbital Rotation      ...    3.5122e-05  Tolerance :   5.0000e-05

             **** THE GBW FILE WAS UPDATED (/Users/mattyjones/GoogleDrive/Boise/Code/MorphCT/tests/output_EZ/donor_polymer/chromophores/input_orca/pair/00012-00015.gbw) ****
             **** DENSITY FILE WAS UPDATED (/Users/mattyjones/GoogleDrive/Boise/Code/MorphCT/tests/output_EZ/donor_polymer/chromophores/input_orca/pair/00012-00015.scfp.tmp) ****
             **** ENERGY FILE WAS UPDATED (/Users/mattyjones/GoogleDrive/Boise/Code/MorphCT/tests/output_EZ/donor_polymer/chromophores/input_orca/pair/00012-00015.en.tmp) ****
----------------
ORBITAL ENERGIES
----------------

  NO   OCC          E(Eh)            E(eV) 
   0   2.0000      -1.565684       -42.6044 
   1   2.0000      -1.555460       -42.3262 
   2   2.0000      -1.405715       -38.2515 
   3   2.0000      -1.388894       -37.7937 
   4   2.0000      -1.290066       -35.1045 
   5   2.0000      -1.281567       -34.8732 
   6   2.0000      -1.189681       -32.3729 
   7   2.0000      -1.180657       -32.1273 
   8   2.0000      -1.121222       -30.5100 
   9   2.0000      -1.108760       -30.1709 
  10   2.0000      -1.052067       -28.6282 
  11   2.0000      -1.028571       -27.9888 
  12   2.0000      -0.972522       -26.4637 
  13   2.0000      -0.947429       -25.7809 
  14   2.0000      -0.901619       -24.5343 
  15   2.0000      -0.887568       -24.1520 
  16   2.0000      -0.867406       -23.6033 
  17   2.0000      -0.843607       -22.9557 
  18   2.0000      -0.837999       -22.8031 
  19   2.0000      -0.831862       -22.6361 
  20   2.0000      -0.783788       -21.3279 
  21   2.0000      -0.774159       -21.0659 
  22   2.0000      -0.728402       -19.8208 
  23   2.0000      -0.708046       -19.2669 
  24   2.0000      -0.698408       -19.0047 
  25   2.0000      -0.696805       -18.9610 
  26   2.0000      -0.695783       -18.9332 
  27   2.0000      -0.665010       -18.0958 
  28   2.0000      -0.660196       -17.9649 
  29   2.0000      -0.625158       -17.0114 
  30   2.0000      -0.621722       -16.9179 
  31   2.0000      -0.614332       -16.7168 
  32   2.0000      -0.588722       -16.0199 
  33   2.0000      -0.584808       -15.9134 
  34   2.0000      -0.577418       -15.7123 
  35   2.0000      -0.575821       -15.6689 
  36   2.0000      -0.572383       -15.5753 
  37   2.0000      -0.562604       -15.3092 
  38   2.0000      -0.559210       -15.2169 
  39   2.0000      -0.558197       -15.1893 
  40   2.0000      -0.536570       -14.6008 
  41   2.0000      -0.527323       -14.3492 
  42   2.0000      -0.523268       -14.2388 
  43   2.0000      -0.514724       -14.0063 
  44   2.0000      -0.501869       -13.6565 
  45   2.0000      -0.495581       -13.4855 
  46   2.0000      -0.493017       -13.4157 
  47   2.0000      -0.492101       -13.3908 
  48   2.0000      -0.487843       -13.2749 
  49   2.0000      -0.484608       -13.1869 
  50   2.0000      -0.479931       -13.0596 
  51   2.0000      -0.479771       -13.0552 
  52   2.0000      -0.472740       -12.8639 
  53   2.0000      -0.467955       -12.7337 
  54   2.0000      -0.455522       -12.3954 
  55   2.0000      -0.450599       -12.2614 
  56   2.0000      -0.436693       -11.8830 
  57   2.0000      -0.430531       -11.7153 
  58   2.0000      -0.357028        -9.7152 
  59   2.0000      -0.347547        -9.4572 
  60   2.0000      -0.305335        -8.3086 
  61   2.0000      -0.305238        -8.3060 
  62   0.0000       0.006772         0.1843 
  63   0.0000       0.007556         0.2056 
  64   0.0000       0.057794         1.5726 
  65   0.0000       0.066416         1.8073 
  66   0.0000       0.066923         1.8211 
  67   0.0000       0.074647         2.0312 
  68   0.0000       0.086287         2.3480 
  69   0.0000       0.088077         2.3967 
  70   0.0000       0.102086         2.7779 
  71   0.0000       0.103968         2.8291 
  72   0.0000       0.106868         2.9080 
  73   0.0000       0.108438         2.9508 
  74   0.0000       0.123773         3.3680 
  75   0.0000       0.124150         3.3783 
  76   0.0000       0.143148         3.8953 
  77   0.0000       0.143379         3.9015 
  78   0.0000       0.156507         4.2588 
  79   0.0000       0.161039         4.3821 
  80   0.0000       0.164628         4.4798 
  81   0.0000       0.168252         4.5784 
  82   0.0000       0.168406         4.5826 
  83   0.0000       0.174786         4.7562 
  84   0.0000       0.200338         5.4515 
  85   0.0000       0.202913         5.5215 
  86   0.0000       0.227782         6.1983 
  87   0.0000       0.228962         6.2304 
  88   0.0000       0.232164         6.3175 
  89   0.0000       0.234457         6.3799 
  90   0.0000       0.234529         6.3819 
  91   0.0000       0.236724         6.4416 
  92   0.0000       0.237865         6.4726 
  93   0.0000       0.239327         6.5124 
  94   0.0000       0.239420         6.5150 
  95   0.0000       0.240651         6.5484 
  96   0.0000       0.242518         6.5993 
  97   0.0000       0.242952         6.6111 
  98   0.0000       0.244394         6.6503 
  99   0.0000       0.245078         6.6689 
 100   0.0000       0.248060         6.7501 
 101   0.0000       0.252628         6.8744 
 102   0.0000       0.255120         6.9422 
 103   0.0000       0.260587         7.0909 
 104   0.0000       0.266595         7.2544 
 105   0.0000       0.267187         7.2705 
 106   0.0000       0.284799         7.7498 
 107   0.0000       0.286587         7.7984 
 108   0.0000       0.305377         8.3097 
 109   0.0000       0.309575         8.4240 
 110   0.0000       0.310718         8.4551 
 111   0.0000       0.311960         8.4889 
 112   0.0000       0.332904         9.0588 
 113   0.0000       0.338667         9.2156 
 114   0.0000       0.352019         9.5789 
 115   0.0000       0.352600         9.5947 
 116   0.0000       0.414395        11.2763 
 117   0.0000       0.421450        11.4682 
 118   0.0000       0.422744        11.5035 
 119   0.0000       0.430626        11.7179 
-------
TIMINGS
-------

Total SCF time: 0 days 0 hours 0 min 0 sec 

Total time                  ....       0.173 sec
Sum of individual times     ....       0.108 sec  ( 62.5%)

Fock matrix formation       ....       0.050 sec  ( 29.1%)
Diagonalization             ....       0.026 sec  ( 14.9%)
Density matrix formation    ....       0.006 sec  (  3.4%)
Population analysis         ....       0.000 sec  (  0.0%)
Initial guess               ....       0.003 sec  (  1.6%)
Orbital Transformation      ....       0.000 sec  (  0.0%)
Orbital Orthonormalization  ....       0.000 sec  (  0.0%)
DIIS solution               ....       0.012 sec  (  6.9%)
SOSCF solution              ....       0.011 sec  (  6.5%)

-------------------------   --------------------
FINAL SINGLE POINT ENERGY       -21.384687568783
-------------------------   --------------------


                            ***************************************
                            *     ORCA property calculations      *
                            ***************************************

                                    ---------------------
                                    Active property flags
                                    ---------------------
   (+) Dipole Moment


------------------------------------------------------------------------------
                       ORCA ELECTRIC PROPERTIES CALCULATION
------------------------------------------------------------------------------

Dipole Moment Calculation                       ... on
Quadrupole Moment Calculation                   ... off
Polarizability Calculation                      ... off
GBWName                                         ... /Users/mattyjones/GoogleDrive/Boise/Code/MorphCT/tests/output_EZ/donor_polymer/chromophores/input_orca/pair/00012-00015.gbw
Electron density file                           ... /Users/mattyjones/GoogleDrive/Boise/Code/MorphCT/tests/output_EZ/donor_polymer/chromophores/input_orca/pair/00012-00015.scfp.tmp

-------------
DIPOLE MOMENT
-------------
                                X             Y             Z
Electronic contribution:     96.26014     258.12931     -44.61141
Nuclear contribution   :    -55.00331    -139.46587      22.26839
                        -----------------------------------------
Total Dipole Moment    :     41.25683     118.66344     -22.34302
                        -----------------------------------------
Magnitude (a.u.)       :    127.60231
Magnitude (Debye)      :    324.33929


Timings for individual modules:

Sum of individual times         ...        0.255 sec (=   0.004 min)
STO integral calculation        ...        0.043 sec (=   0.001 min)  16.7 %
SCF iterations                  ...        0.212 sec (=   0.004 min)  83.3 %
                             ****ORCA TERMINATED NORMALLY****
TOTAL RUN TIME: 0 days 0 hours 0 minutes 0 seconds 584 msec

