
                                 *****************
                                 * O   R   C   A *
                                 *****************

           --- An Ab Initio, DFT and Semiempirical electronic structure package ---

                  #######################################################
                  #                        -***-                        #
                  #  Department of molecular theory and spectroscopy    #
                  #              Directorship: Frank Neese              #
                  # Max Planck Institute for Chemical Energy Conversion #
                  #                  D-45470 Muelheim/Ruhr              #
                  #                       Germany                       #
                  #                                                     #
                  #                  All rights reserved                #
                  #                        -***-                        #
                  #######################################################


                         Program Version 3.0.3 - RELEASE   -


 With contributions from (in alphabetic order):
   Ute Becker             : Parallelization
   Dmytro Bykov           : SCF Hessian
   Dmitry Ganyushin       : Spin-Orbit,Spin-Spin,Magnetic field MRCI
   Andreas Hansen         : Spin unrestricted coupled pair/coupled cluster methods
   Dimitrios Liakos       : Extrapolation schemes; parallel MDCI
   Robert Izsak           : Overlap fitted RIJCOSX, COSX-SCS-MP3
   Christian Kollmar      : KDIIS, OOCD, Brueckner-CCSD(T), CCSD density
   Simone Kossmann        : Meta GGA functionals, TD-DFT gradient, OOMP2, MP2 Hessian
   Taras Petrenko         : DFT Hessian,TD-DFT gradient, ASA and ECA modules, normal mode analysis, Resonance Raman, ABS, FL, XAS/XES, NRVS
   Christoph Reimann      : Effective Core Potentials
   Michael Roemelt        : Restricted open shell CIS
   Christoph Riplinger    : Improved optimizer, TS searches, QM/MM, DLPNO-CCSD
   Barbara Sandhoefer     : DKH picture change effects
   Igor Schapiro          : Molecular dynamics
   Kantharuban Sivalingam : CASSCF convergence, NEVPT2
   Boris Wezisla          : Elementary symmetry handling
   Frank Wennmohs         : Technical directorship


 We gratefully acknowledge several colleagues who have allowed us to
 interface, adapt or use parts of their codes:
   Stefan Grimme, W. Hujo, H. Kruse, T. Risthaus : VdW corrections, initial TS optimization,
                                                   DFT functionals, gCP
   Ed Valeev                                     : LibInt (2-el integral package), F12 methods
   Garnet Chan, S. Sharma, R. Olivares           : DMRG
   Ulf Ekstrom                                   : XCFun DFT Library
   Mihaly Kallay                                 : mrcc  (arbitrary order and MRCC methods)
   Andreas Klamt, Michael Diedenhofen            : otool_cosmo (COSMO solvation model)
   Frank Weinhold                                : gennbo (NPA and NBO analysis)
   Christopher J. Cramer and Donald G. Truhlar   : smd solvation model


 Your calculation uses the libint2 library for the computation of 2-el integrals
 For citations please refer to: http://libint.valeyev.net

 This ORCA versions uses:
   CBLAS   interface :  Fast vector & matrix operations
   LAPACKE interface :  Fast linear algebra routines
   SCALAPACK package :  Parallel linear algebra routines


leaving
================================================================================
                                        WARNINGS
                       Please study these warnings very carefully!
================================================================================
Now building the actual basis set

WARNING: Direct SCF is incompatible with Method<>HF and Method<>DFT
  ===> : conventional SCF is chosen

WARNING: The NDO methods need Guess=HUECKEL or Guess=HCORE or Guess=MOREAD
  ===> : Guess is set to Hueckel

WARNING: The NDO methods need %rel::SOCType==1
  ===> : %rel::SOCType is set to 1

WARNING: The NDO methods cannot have frozencore=1
  ===> : %method FrozenCore=0 end


INFO   : the flag for use of LIBINT has been found!

================================================================================
                                       INPUT FILE
================================================================================
NAME = /Users/mattyjones/GoogleDrive/Boise/Code/MorphCT/tests/output_EZ/donor_polymer/chromophores/input_orca/pair/00015-00017.inp
|  1> # ================================================================
|  2> # Orca input file made by Matty Jones
|  3> # ================================================================
|  4> ! ZINDO/S 
|  5> ! NOPOP
|  6> ! NOMOPRINT
|  7> * xyz 0   1
|  8>  C  3.13985  -1.06915  -3.60710
|  9>  C  3.24060  -2.19988  -2.79519
| 10>  C  3.39365  -1.90792  -1.40393
| 11>  C  3.41385  -0.53975  -1.11581
| 12>  S  3.24369  0.22595  -2.57703
| 13>  H  3.64206  -3.17455  -3.25695
| 14>  C  3.47241  -3.27227  -0.52482
| 15>  C  2.13646  -4.25410  -1.12660
| 16>  C  1.38351  -5.79310  -0.97665
| 17>  H  0.24707  -5.60833  -0.89533
| 18>  H  1.76821  -6.27158  -0.00196
| 19>  H  2.36855  -4.32056  -2.25433
| 20>  H  1.24748  -3.53062  -0.95633
| 21>  H  3.30253  -3.06995  0.59551
| 22>  H  4.45927  -3.84028  -0.70041
| 23>  C  1.67996  -6.78987  -2.24083
| 24>  C  0.62063  -8.10424  -2.40198
| 25>  C  1.06308  -9.49813  -1.57948
| 26>  H  2.13161  -9.80952  -1.89582
| 27>  H  0.31888  -10.34675  -1.83770
| 28>  H  1.03692  -9.29262  -0.44088
| 29>  H  0.55232  -8.36303  -3.52473
| 30>  H  -0.41780  -7.77589  -2.02473
| 31>  H  2.75116  -7.21416  -2.14945
| 32>  H  1.60300  -6.19219  -3.22934
| 33>  C  2.72768  4.65885  2.06135
| 34>  C  1.64412  4.16740  1.33180
| 35>  C  0.49513  5.01817  1.34826
| 36>  C  0.67232  6.18732  2.09459
| 37>  S  2.21950  6.10800  2.68650
| 38>  H  1.21727  3.08863  1.64437
| 39>  C  -0.79372  4.52183  0.51404
| 40>  C  -2.37831  4.85307  0.94635
| 41>  C  -3.00265  3.79590  2.09759
| 42>  H  -2.70705  2.71797  1.80339
| 43>  H  -2.51270  4.05196  3.11354
| 44>  H  -2.44404  5.92770  1.34304
| 45>  H  -3.02758  4.75902  -0.00542
| 46>  H  -0.74675  3.35280  0.42616
| 47>  H  -0.68768  4.93057  -0.58069
| 48>  C  -4.62014  3.91100  2.21592
| 49>  C  -5.17138  5.34394  2.91439
| 50>  C  -5.50654  6.51277  1.74631
| 51>  H  -4.78284  6.39649  0.85139
| 52>  H  -5.38180  7.56515  2.21064
| 53>  H  -6.59529  6.37406  1.37923
| 54>  H  -6.13208  5.12608  3.50909
| 55>  H  -4.35843  5.75286  3.61869
| 56>  H  -5.09423  3.81793  1.16467
| 57>  H  -5.01138  3.03951  2.87135
| 58>  H  3.02184  -1.04370  -4.66020
| 59>  H  3.51645  -0.08683  -0.16295
| 60>  H  3.67563  4.20199  2.18889
| 61>  H  -0.03431  6.96208  2.24958
| 62> *
| 63> 
| 64>                          ****END OF INPUT****
================================================================================

                       ****************************
                       * Single Point Calculation *
                       ****************************

---------------------------------
CARTESIAN COORDINATES (ANGSTROEM)
---------------------------------
  C      3.139850   -1.069150   -3.607100
  C      3.240600   -2.199880   -2.795190
  C      3.393650   -1.907920   -1.403930
  C      3.413850   -0.539750   -1.115810
  S      3.243690    0.225950   -2.577030
  H      3.642060   -3.174550   -3.256950
  C      3.472410   -3.272270   -0.524820
  C      2.136460   -4.254100   -1.126600
  C      1.383510   -5.793100   -0.976650
  H      0.247070   -5.608330   -0.895330
  H      1.768210   -6.271580   -0.001960
  H      2.368550   -4.320560   -2.254330
  H      1.247480   -3.530620   -0.956330
  H      3.302530   -3.069950    0.595510
  H      4.459270   -3.840280   -0.700410
  C      1.679960   -6.789870   -2.240830
  C      0.620630   -8.104240   -2.401980
  C      1.063080   -9.498130   -1.579480
  H      2.131610   -9.809520   -1.895820
  H      0.318880  -10.346750   -1.837700
  H      1.036920   -9.292620   -0.440880
  H      0.552320   -8.363030   -3.524730
  H     -0.417800   -7.775890   -2.024730
  H      2.751160   -7.214160   -2.149450
  H      1.603000   -6.192190   -3.229340
  C      2.727680    4.658850    2.061350
  C      1.644120    4.167400    1.331800
  C      0.495130    5.018170    1.348260
  C      0.672320    6.187320    2.094590
  S      2.219500    6.108000    2.686500
  H      1.217270    3.088630    1.644370
  C     -0.793720    4.521830    0.514040
  C     -2.378310    4.853070    0.946350
  C     -3.002650    3.795900    2.097590
  H     -2.707050    2.717970    1.803390
  H     -2.512700    4.051960    3.113540
  H     -2.444040    5.927700    1.343040
  H     -3.027580    4.759020   -0.005420
  H     -0.746750    3.352800    0.426160
  H     -0.687680    4.930570   -0.580690
  C     -4.620140    3.911000    2.215920
  C     -5.171380    5.343940    2.914390
  C     -5.506540    6.512770    1.746310
  H     -4.782840    6.396490    0.851390
  H     -5.381800    7.565150    2.210640
  H     -6.595290    6.374060    1.379230
  H     -6.132080    5.126080    3.509090
  H     -4.358430    5.752860    3.618690
  H     -5.094230    3.817930    1.164670
  H     -5.011380    3.039510    2.871350
  H      3.021840   -1.043700   -4.660200
  H      3.516450   -0.086830   -0.162950
  H      3.675630    4.201990    2.188890
  H     -0.034310    6.962080    2.249580

----------------------------
CARTESIAN COORDINATES (A.U.)
----------------------------
  NO LB      ZA    FRAG    MASS        X           Y           Z
   0 C     4.0000    0    12.011          5.933456601592642         -2.020400696081906         -6.816431137667347
   1 C     4.0000    0    12.011          6.123846509585208         -4.157170727490683         -5.282143592275343
   2 C     4.0000    0    12.011          6.413069094381856         -3.605446285431035         -2.653043211196063
   3 C     4.0000    0    12.011          6.451241562287065         -1.019979680783996         -2.108575317490672
   4 S     6.0000    0    32.060          6.129685763339025          0.426983619959507         -4.869880938899083
   5 H     1.0000    0     1.008          6.882495963309234         -5.999030098439709         -6.154743531874820
   6 C     4.0000    0    12.011          6.561903924689494         -6.183694136246494         -0.991766069604551
   7 C     4.0000    0    12.011          4.037324296077397         -8.039083946314397         -2.128965462475682
   8 C     4.0000    0    12.011          2.614455003541391        -10.947372466419203         -1.845601028694190
   9 H     1.0000    0     1.008          0.466894635907924        -10.598207768654573         -1.691928499483714
  10 H     1.0000    0     1.008          3.341432647260897        -11.851568626977844         -0.003703863222486
  11 H     1.0000    0     1.008          4.475910834499181         -8.164675145174805         -4.260066315482695
  12 H     1.0000    0     1.008          2.357395557544083         -6.671904882945049         -1.807201793652911
  13 H     1.0000    0     1.008          6.240877249058951         -5.801364744831546          1.125350810011444
  14 H     1.0000    0     1.008          8.426799057211021         -7.257077477575105         -1.323583081459784
  15 C     4.0000    0    12.011          3.174664315942346        -12.830994784927888         -4.234555012674758
  16 C     4.0000    0    12.011          1.172820730495546        -15.314794123569966         -4.539084379156168
  17 C     4.0000    0    12.011          2.008930058449004        -17.948864484381456         -2.984784634005939
  18 H     1.0000    0     1.008          4.028159124327879        -18.537306305223193         -3.582580599210587
  19 H     1.0000    0     1.008          0.602595869584809        -19.552523876149710         -3.472749716307084
  20 H     1.0000    0     1.008          1.959494822785624        -17.560506866599301         -0.833142457923201
  21 H     1.0000    0     1.008          1.043733538287386        -15.803836349767446         -6.660774396016254
  22 H     1.0000    0     1.008         -0.789527578752299        -14.694302547496923         -3.826185195134376
  23 H     1.0000    0     1.008          5.198938950598791        -13.632786686289336         -4.061871838557034
  24 H     1.0000    0     1.008          3.029230992675767        -11.701543269205835         -6.102568193317255
  25 C     4.0000    0    12.011          5.154568180974319          8.803950599019023          3.895386966158572
  26 C     4.0000    0    12.011          3.106936531302608          7.875244690503424          2.516737265156323
  27 C     4.0000    0    12.011          0.935660100688429          9.482966993459607          2.547842157320667
  28 C     4.0000    0    12.011          1.270500674357936         11.692340302933639          3.958201462850115
  29 S     6.0000    0    32.060          4.194247154238218         11.542447225991005          5.076749258779443
  30 H     1.0000    0     1.008          2.300306931038322          5.836664829013196          3.107408962836089
  31 C     4.0000    0    12.011         -1.499913427015976          8.545020324149133          0.971394821880880
  32 C     4.0000    0    12.011         -4.494354561566252          9.170973208749208          1.788342326836377
  33 C     4.0000    0    12.011         -5.674186176018646          7.173211431751679          3.963870641251878
  34 H     1.0000    0     1.008         -5.115583130831524          5.136218940213944          3.407913212652246
  35 H     1.0000    0     1.008         -4.748314856703930          7.657094705603555          5.883737907009174
  36 H     1.0000    0     1.008         -4.618566260348897         11.201729604045003          2.537977786901598
  37 H     1.0000    0     1.008         -5.721297048537303          8.993244465853914         -0.010242315645853
  38 H     1.0000    0     1.008         -1.411152990505695          6.335873781811173          0.805325689231881
  39 H     1.0000    0     1.008         -1.299526867774966          9.317426984128106         -1.097345068706732
  40 C     4.0000    0    12.011         -8.730799300374931          7.390718909766015          4.187481934678781
  41 C     4.0000    0    12.011         -9.772491934437683         10.098583076107133          5.507398947438757
  42 C     4.0000    0    12.011        -10.405852545482729         12.307351673218310          3.300047644928021
  43 H     1.0000    0     1.008         -9.038257742363919         12.087614318365947          1.608893933159214
  44 H     1.0000    0     1.008        -10.170128107537392         14.296061662034358          4.177504180691676
  45 H     1.0000    0     1.008        -12.463291873789492         12.045227761182094          2.606366975688208
  46 H     1.0000    0     1.008        -11.587951831295829          9.686887340571049          6.631219079281725
  47 H     1.0000    0     1.008         -8.236239073866402         10.871329886790212          6.838333063559494
  48 H     1.0000    0     1.008         -9.626699563205657          7.214842098481965          2.200907336394065
  49 H     1.0000    0     1.008         -9.470135753010283          5.743841481314983          5.426065134634786
  50 H     1.0000    0     1.008          5.710450020528596         -1.972307165973610         -8.806501729299816
  51 H     1.0000    0     1.008          6.645127463627385         -0.164084920208382         -0.307930873522468
  52 H     1.0000    0     1.008          6.945934069624970          7.940610317475761          4.136402637278888
  53 H     1.0000    0     1.008         -0.064836503654838         13.156424522450468          4.251090116346569

--------------------------------
INTERNAL COORDINATES (ANGSTROEM)
--------------------------------
 C      0   0   0   0.000000     0.000     0.000
 C      1   0   0   1.395671     0.000     0.000
 C      2   1   0   1.429779   114.101     0.000
 C      3   2   1   1.398324   113.693     0.000
 S      1   2   3   1.658044   105.480     0.000
 H      2   1   3   1.150815   118.550   205.914
 C      3   2   1   1.624958   111.111   178.815
 C      7   3   2   1.763772   104.246   312.889
 C      8   7   3   1.719866   143.128   176.370
 H      9   8   7   1.154231   107.094   133.870
 H      9   8   7   1.151937   107.413    16.191
 H      8   7   3   1.153281   102.315    56.448
 H      8   7   3   1.158750   100.568   303.584
 H      7   3   2   1.151057   111.829   195.806
 H      7   3   2   1.152111   111.901    70.310
 C      9   8   7   1.636944   113.470   254.544
 C     16   9   8   1.695794   115.609   198.012
 C     17  16   9   1.677855   115.632   270.841
 H     18  17  16   1.157061   109.455   304.901
 H     18  17  16   1.157872   109.273   184.883
 H     18  17  16   1.157294   109.196    65.044
 H     17  16   9   1.154212   107.649   150.241
 H     17  16   9   1.152592   108.113    32.384
 H     16   9   8   1.155786   109.288    76.513
 H     16   9   8   1.157712   109.452   317.722
 C      4   3   2   6.131119   159.192   152.975
 C     26   4   3   1.395661    61.147   272.279
 C     27  26   4   1.429776   114.102   184.062
 C     28  27  26   1.398326   113.693     0.000
 S     26   4   3   1.658040   166.112   255.757
 H     27  26   4   1.201518   117.128    61.940
 C     28  27  26   1.613509   116.931   179.439
 C     32  28  27   1.675571   124.139   148.090
 C     33  32  28   1.683081   113.773   276.851
 H     34  33  32   1.155797   108.471   315.549
 H     34  33  32   1.156621   107.736    73.126
 H     33  32  28   1.147394   109.179    39.238
 H     33  32  28   1.155968   107.617   157.635
 H     32  28  27   1.173269   108.255    24.928
 H     32  28  27   1.173348   107.640   270.899
 C     34  33  32   1.625892   111.984   194.199
 C     41  34  33   1.686726   114.545   289.722
 C     42  41  34   1.686092   111.531    92.978
 H     43  42  41   1.156782   109.993   327.310
 H     43  42  41   1.157007   109.334   206.990
 H     43  42  41   1.157309   108.884    87.102
 H     42  41  34   1.150685   109.028   213.225
 H     42  41  34   1.150714   108.933   333.185
 H     41  34  33   1.156957   109.623    51.418
 H     41  34  33   1.158513   108.898   169.824
 H      1   2   3   1.059997   127.260   180.000
 H      4   3   2   1.060003   127.206   180.000
 H     26   4   3   1.059998    66.223    88.747
 H     29  28  27   1.060000   127.206   180.000

---------------------------
INTERNAL COORDINATES (A.U.)
---------------------------
 C      0   0   0   0.000000     0.000     0.000
 C      1   0   0   2.637437     0.000     0.000
 C      2   1   0   2.701892   114.101     0.000
 C      3   2   1   2.642450   113.693     0.000
 S      1   2   3   3.133250   105.480     0.000
 H      2   1   3   2.174724   118.550   205.914
 C      3   2   1   3.070726   111.111   178.815
 C      7   3   2   3.333046   104.246   312.889
 C      8   7   3   3.250076   143.128   176.370
 H      9   8   7   2.181180   107.094   133.870
 H      9   8   7   2.176845   107.413    16.191
 H      8   7   3   2.179386   102.315    56.448
 H      8   7   3   2.189719   100.568   303.584
 H      7   3   2   2.175182   111.829   195.806
 H      7   3   2   2.177174   111.901    70.310
 C      9   8   7   3.093375   113.470   254.544
 C     16   9   8   3.204587   115.609   198.012
 C     17  16   9   3.170687   115.632   270.841
 H     18  17  16   2.186529   109.455   304.901
 H     18  17  16   2.188061   109.273   184.883
 H     18  17  16   2.186968   109.196    65.044
 H     17  16   9   2.181145   107.649   150.241
 H     17  16   9   2.178083   108.113    32.384
 H     16   9   8   2.184119   109.288    76.513
 H     16   9   8   2.187758   109.452   317.722
 C      4   3   2  11.586135   159.192   152.975
 C     26   4   3   2.637416    61.147   272.279
 C     27  26   4   2.701885   114.102   184.062
 C     28  27  26   2.642454   113.693     0.000
 S     26   4   3   3.133241   166.112   255.757
 H     27  26   4   2.270540   117.128    61.940
 C     28  27  26   3.049090   116.931   179.439
 C     32  28  27   3.166370   124.139   148.090
 C     33  32  28   3.180563   113.773   276.851
 H     34  33  32   2.184139   108.471   315.549
 H     34  33  32   2.185697   107.736    73.126
 H     33  32  28   2.168260   109.179    39.238
 H     33  32  28   2.184464   107.617   157.635
 H     32  28  27   2.217157   108.255    24.928
 H     32  28  27   2.217307   107.640   270.899
 C     34  33  32   3.072490   111.984   194.199
 C     41  34  33   3.187449   114.545   289.722
 C     42  41  34   3.186252   111.531    92.978
 H     43  42  41   2.186001   109.993   327.310
 H     43  42  41   2.186427   109.334   206.990
 H     43  42  41   2.186998   108.884    87.102
 H     42  41  34   2.174479   109.028   213.225
 H     42  41  34   2.174534   108.933   333.185
 H     41  34  33   2.186332   109.623    51.418
 H     41  34  33   2.189272   108.898   169.824
 H      1   2   3   2.003104   127.260   180.000
 H      4   3   2   2.003115   127.206   180.000
 H     26   4   3   2.003107    66.223    88.747
 H     29  28  27   2.003111   127.206   180.000

----------------------------
SLATER BASIS SET DIM= 120
----------------------------
  0 C     2 shells
 l=0 nsto= 1
    2       1.625000000000        1.000000000000
 l=1 nsto= 1
    2       1.625000000000        1.000000000000
  1 C     2 shells
 l=0 nsto= 1
    2       1.625000000000        1.000000000000
 l=1 nsto= 1
    2       1.625000000000        1.000000000000
  2 C     2 shells
 l=0 nsto= 1
    2       1.625000000000        1.000000000000
 l=1 nsto= 1
    2       1.625000000000        1.000000000000
  3 C     2 shells
 l=0 nsto= 1
    2       1.625000000000        1.000000000000
 l=1 nsto= 1
    2       1.625000000000        1.000000000000
  4 S     2 shells
 l=0 nsto= 1
    3       1.925000000000        1.000000000000
 l=1 nsto= 1
    3       1.925000000000        1.000000000000
  5 H     1 shells
 l=0 nsto= 1
    1       1.200000000000        1.000000000000
  6 C     2 shells
 l=0 nsto= 1
    2       1.625000000000        1.000000000000
 l=1 nsto= 1
    2       1.625000000000        1.000000000000
  7 C     2 shells
 l=0 nsto= 1
    2       1.625000000000        1.000000000000
 l=1 nsto= 1
    2       1.625000000000        1.000000000000
  8 C     2 shells
 l=0 nsto= 1
    2       1.625000000000        1.000000000000
 l=1 nsto= 1
    2       1.625000000000        1.000000000000
  9 H     1 shells
 l=0 nsto= 1
    1       1.200000000000        1.000000000000
 10 H     1 shells
 l=0 nsto= 1
    1       1.200000000000        1.000000000000
 11 H     1 shells
 l=0 nsto= 1
    1       1.200000000000        1.000000000000
 12 H     1 shells
 l=0 nsto= 1
    1       1.200000000000        1.000000000000
 13 H     1 shells
 l=0 nsto= 1
    1       1.200000000000        1.000000000000
 14 H     1 shells
 l=0 nsto= 1
    1       1.200000000000        1.000000000000
 15 C     2 shells
 l=0 nsto= 1
    2       1.625000000000        1.000000000000
 l=1 nsto= 1
    2       1.625000000000        1.000000000000
 16 C     2 shells
 l=0 nsto= 1
    2       1.625000000000        1.000000000000
 l=1 nsto= 1
    2       1.625000000000        1.000000000000
 17 C     2 shells
 l=0 nsto= 1
    2       1.625000000000        1.000000000000
 l=1 nsto= 1
    2       1.625000000000        1.000000000000
 18 H     1 shells
 l=0 nsto= 1
    1       1.200000000000        1.000000000000
 19 H     1 shells
 l=0 nsto= 1
    1       1.200000000000        1.000000000000
 20 H     1 shells
 l=0 nsto= 1
    1       1.200000000000        1.000000000000
 21 H     1 shells
 l=0 nsto= 1
    1       1.200000000000        1.000000000000
 22 H     1 shells
 l=0 nsto= 1
    1       1.200000000000        1.000000000000
 23 H     1 shells
 l=0 nsto= 1
    1       1.200000000000        1.000000000000
 24 H     1 shells
 l=0 nsto= 1
    1       1.200000000000        1.000000000000
 25 C     2 shells
 l=0 nsto= 1
    2       1.625000000000        1.000000000000
 l=1 nsto= 1
    2       1.625000000000        1.000000000000
 26 C     2 shells
 l=0 nsto= 1
    2       1.625000000000        1.000000000000
 l=1 nsto= 1
    2       1.625000000000        1.000000000000
 27 C     2 shells
 l=0 nsto= 1
    2       1.625000000000        1.000000000000
 l=1 nsto= 1
    2       1.625000000000        1.000000000000
 28 C     2 shells
 l=0 nsto= 1
    2       1.625000000000        1.000000000000
 l=1 nsto= 1
    2       1.625000000000        1.000000000000
 29 S     2 shells
 l=0 nsto= 1
    3       1.925000000000        1.000000000000
 l=1 nsto= 1
    3       1.925000000000        1.000000000000
 30 H     1 shells
 l=0 nsto= 1
    1       1.200000000000        1.000000000000
 31 C     2 shells
 l=0 nsto= 1
    2       1.625000000000        1.000000000000
 l=1 nsto= 1
    2       1.625000000000        1.000000000000
 32 C     2 shells
 l=0 nsto= 1
    2       1.625000000000        1.000000000000
 l=1 nsto= 1
    2       1.625000000000        1.000000000000
 33 C     2 shells
 l=0 nsto= 1
    2       1.625000000000        1.000000000000
 l=1 nsto= 1
    2       1.625000000000        1.000000000000
 34 H     1 shells
 l=0 nsto= 1
    1       1.200000000000        1.000000000000
 35 H     1 shells
 l=0 nsto= 1
    1       1.200000000000        1.000000000000
 36 H     1 shells
 l=0 nsto= 1
    1       1.200000000000        1.000000000000
 37 H     1 shells
 l=0 nsto= 1
    1       1.200000000000        1.000000000000
 38 H     1 shells
 l=0 nsto= 1
    1       1.200000000000        1.000000000000
 39 H     1 shells
 l=0 nsto= 1
    1       1.200000000000        1.000000000000
 40 C     2 shells
 l=0 nsto= 1
    2       1.625000000000        1.000000000000
 l=1 nsto= 1
    2       1.625000000000        1.000000000000
 41 C     2 shells
 l=0 nsto= 1
    2       1.625000000000        1.000000000000
 l=1 nsto= 1
    2       1.625000000000        1.000000000000
 42 C     2 shells
 l=0 nsto= 1
    2       1.625000000000        1.000000000000
 l=1 nsto= 1
    2       1.625000000000        1.000000000000
 43 H     1 shells
 l=0 nsto= 1
    1       1.200000000000        1.000000000000
 44 H     1 shells
 l=0 nsto= 1
    1       1.200000000000        1.000000000000
 45 H     1 shells
 l=0 nsto= 1
    1       1.200000000000        1.000000000000
 46 H     1 shells
 l=0 nsto= 1
    1       1.200000000000        1.000000000000
 47 H     1 shells
 l=0 nsto= 1
    1       1.200000000000        1.000000000000
 48 H     1 shells
 l=0 nsto= 1
    1       1.200000000000        1.000000000000
 49 H     1 shells
 l=0 nsto= 1
    1       1.200000000000        1.000000000000
 50 H     1 shells
 l=0 nsto= 1
    1       1.200000000000        1.000000000000
 51 H     1 shells
 l=0 nsto= 1
    1       1.200000000000        1.000000000000
 52 H     1 shells
 l=0 nsto= 1
    1       1.200000000000        1.000000000000
 53 H     1 shells
 l=0 nsto= 1
    1       1.200000000000        1.000000000000
------------------------------------------------------------------------------
                           ORCA NDO INTEGRAL CALCULATION
------------------------------------------------------------------------------

--------------
NDO PARAMETERS
--------------

Gamma integral treatment              ... Mataga-Nishimoto
Nuclear repulsuion treatment          ... Direct (ZA*ZB/RAB)
Interaction factors:
s-s (sigma) =    1.0000
s-p (sigma) =    1.0000
s-d (sigma) =    1.0000
p-p (sigma) =    1.2670  p-p(pi) =    0.5850
p-d (sigma) =    1.0000  p-d(pi) =    1.0000
d-d (sigma) =    1.0000  d-d(pi) =    1.0000 d-d (delta) =    1.0000

fGamma parameter for Mataga-Nishimoto gamma integrals:    1.2000

--------------------------
Parameters for Element H :
--------------------------
 One-electron parameters (in eV)
  U(s)  =   -13.060000 Beta(s) =    12.000000 Neff(s) =     1.000000
 One-center electron repulsion parameters (in eV)
  G(s,s)=    12.850000
--------------------------
Parameters for Element C :
--------------------------
 One-electron parameters (in eV)
  U(s)  =   -50.870766 Beta(s) =    17.000000 Neff(s) =     2.000000
  U(p)  =   -41.599980 Beta(p) =    17.000000 Neff(p) =     2.000000 
 One-center electron repulsion parameters (in eV)
  G(s,s)=    11.110000
  G(s,p)=    11.110000 G(p,p)  =    11.110000
 Slater-Condon parameters (in eV)
 F2(p,p)=     4.5098 G1(s,p)=    6.8977
--------------------------
Parameters for Element S :
--------------------------
 One-electron parameters (in eV)
  U(s)  =   -69.509597 Beta(s) =    15.000000 Neff(s) =     2.000000
  U(p)  =   -60.725746 Beta(p) =    15.000000 Neff(p) =     4.000000 
 One-center electron repulsion parameters (in eV)
  G(s,s)=    10.090000
  G(s,p)=    10.090000 G(p,p)  =    10.090000
 Slater-Condon parameters (in eV)
 F2(p,p)=     4.5377 G1(s,p)=    3.0756

 Number of atoms                    ....   54
 Number of basis functions          ....  120

 Overlap integrals                  .... done
 One electron matrix                .... done
 Nuclear repulsion                  .... done
 Integral list                      .... done
 Electron-electron repulsion        .... done
-------------------------------------------------------------------------------
                                 ORCA SCF
-------------------------------------------------------------------------------

------------
SCF SETTINGS
------------
Hamiltonian:
 ZDO-Hamiltonian        Method          .... INDO


General Settings:
 Integral files         IntName         .... /Users/mattyjones/GoogleDrive/Boise/Code/MorphCT/tests/output_EZ/donor_polymer/chromophores/input_orca/pair/00015-00017
 Hartree-Fock type      HFTyp           .... RHF
 Total Charge           Charge          ....    0
 Multiplicity           Mult            ....    1
 Number of Electrons    NEL             ....  124
 Basis Dimension        Dim             ....  120
 Nuclear Repulsion      ENuc            ....    783.9275368060 Eh

Convergence Acceleration:
 DIIS                   CNVDIIS         .... on
   Start iteration      DIISMaxIt       ....    12
   Startup error        DIISStart       ....  0.200000
   # of expansion vecs  DIISMaxEq       ....     5
   Bias factor          DIISBfac        ....   1.050
   Max. coefficient     DIISMaxC        ....  10.000
 Newton-Raphson         CNVNR           .... off
 SOSCF                  CNVSOSCF        .... on
   Start iteration      SOSCFMaxIt      ....   150
   Startup grad/error   SOSCFStart      ....  0.003300
 Level Shifting         CNVShift        .... on
   Level shift para.    LevelShift      ....    0.2500
   Turn off err/grad.   ShiftErr        ....    0.0010
 Zerner damping         CNVZerner       .... off
 Static damping         CNVDamp         .... on
   Fraction old density DampFac         ....    0.7000
   Max. Damping (<1)    DampMax         ....    0.9800
   Min. Damping (>=0)   DampMin         ....    0.0000
   Turn off err/grad.   DampErr         ....    0.1000
 Fernandez-Rico         CNVRico         .... off

SCF Procedure:
 Maximum # iterations   MaxIter         ....   125
 SCF integral mode      SCFMode         .... Conventional
 Integral Buffer length BufferLength    .... 1048576
 Integral index format  IndFormat       ....     0
 Integral value format  ValFormat       ....     0
 Integral Storage       Thresh          ....  1.000e-08 Eh

Convergence Tolerance:
 Convergence Check Mode ConvCheckMode   .... Total+1el-Energy
 Energy Change          TolE            ....  1.000e-06 Eh
 1-El. energy change                    ....  1.000e-03 Eh
 Orbital Gradient       TolG            ....  5.000e-05
 Orbital Rotation angle TolX            ....  5.000e-05
 DIIS Error             TolErr          ....  1.000e-06


Diagonalization of the overlap matrix:
Smallest eigenvalue                        ... 1.676e-01
Time for diagonalization                   ...    0.003 sec
Threshold for overlap eigenvalues          ... 1.000e-08
Number of eigenvalues below threshold      ... 0
Time for construction of square roots      ...    0.001 sec
Total time needed                          ...    0.004 sec

-------------------------------
INITIAL GUESS: EXTENDED HUECKEL
-------------------------------
EHT matrix was read from disk
EHT matrix was diagonalized
Initial density was built
                      ------------------
                      INITIAL GUESS DONE
                      ------------------

 InCore treatment chosen:
   Memory dedicated               ...    1024 MB
   Memory needed                  ...      0 MB
   Number of tiny    integrals    ...       0
   Number of small   integrals    ...       0
   Number of regular integrals    ...    7392

--------------
SCF ITERATIONS
--------------
ITER       Energy         Delta-E        Max-DP      RMS-DP      [F,P]     Damp
  0    -20.0459990538   0.000000000000 0.04768162  0.00151591  0.1005816 0.7000
  1    -20.0913297999  -0.045330746101 0.04588915  0.00143685  0.0704568 0.7000
                               ***Turning on DIIS***
  2    -20.1248087944  -0.033478994516 0.12194460  0.00370297  0.0514800 0.0000
  3    -20.2092675438  -0.084458749365 0.02378659  0.00078132  0.0235085 0.0000
  4    -20.1943314580   0.014936085795 0.01728837  0.00055576  0.0091732 0.0000
  5    -20.2132068060  -0.018875348015 0.01216528  0.00037947  0.0055399 0.0000
  6    -20.2158877429  -0.002680936875 0.00855158  0.00027519  0.0032070 0.0000
  7    -20.2127346905   0.003153052372 0.00524343  0.00016241  0.0018864 0.0000
                      *** Initiating the SOSCF procedure ***
                           *** Shutting down DIIS ***
                      *** Re-Reading the Fockian *** 
                      *** Removing any level shift *** 
ITER      Energy       Delta-E        Grad      Rot      Max-DP    RMS-DP
  8    -20.21192980   0.0008048885  0.002008  0.002008  0.002898  0.000087
  9    -20.21063199   0.0012978159  0.000579  0.001716  0.001324  0.000041
 10    -20.21063800  -0.0000060165  0.000269  0.001894  0.001680  0.000049
 11    -20.21064041  -0.0000024074  0.000047  0.000112  0.000215  0.000006
                 **** Energy Check signals convergence ****
              ***Rediagonalizing the Fockian in SOSCF/NRSCF***

               *****************************************************
               *                     SUCCESS                       *
               *           SCF CONVERGED AFTER  12 CYCLES          *
               *****************************************************


----------------
TOTAL SCF ENERGY
----------------

Total Energy       :          -20.21064049 Eh            -549.95949 eV

Components:
Nuclear Repulsion  :          783.92753681 Eh           21331.75276 eV
Electronic Energy  :         -804.13817729 Eh          -21881.71225 eV

One Electron Energy:        -1518.00091788 Eh          -41306.90498 eV
Two Electron Energy:          713.86274058 Eh           19425.19273 eV


---------------
SCF CONVERGENCE
---------------

  Last Energy change         ...   -7.7398e-08  Tolerance :   1.0000e-06
  Last MAX-Density change    ...    6.5141e-05  Tolerance :   1.0000e-05
  Last RMS-Density change    ...    1.8456e-06  Tolerance :   1.0000e-06
  Last Orbital Gradient      ...    1.7635e-05  Tolerance :   5.0000e-05
  Last Orbital Rotation      ...    4.5797e-05  Tolerance :   5.0000e-05

             **** THE GBW FILE WAS UPDATED (/Users/mattyjones/GoogleDrive/Boise/Code/MorphCT/tests/output_EZ/donor_polymer/chromophores/input_orca/pair/00015-00017.gbw) ****
             **** DENSITY FILE WAS UPDATED (/Users/mattyjones/GoogleDrive/Boise/Code/MorphCT/tests/output_EZ/donor_polymer/chromophores/input_orca/pair/00015-00017.scfp.tmp) ****
             **** ENERGY FILE WAS UPDATED (/Users/mattyjones/GoogleDrive/Boise/Code/MorphCT/tests/output_EZ/donor_polymer/chromophores/input_orca/pair/00015-00017.en.tmp) ****
----------------
ORBITAL ENERGIES
----------------

  NO   OCC          E(Eh)            E(eV) 
   0   2.0000      -1.566424       -42.6246 
   1   2.0000      -1.564748       -42.5789 
   2   2.0000      -1.418982       -38.6125 
   3   2.0000      -1.393144       -37.9094 
   4   2.0000      -1.292312       -35.1656 
   5   2.0000      -1.285654       -34.9844 
   6   2.0000      -1.189293       -32.3623 
   7   2.0000      -1.171871       -31.8882 
   8   2.0000      -1.121294       -30.5120 
   9   2.0000      -1.105927       -30.0938 
  10   2.0000      -1.061572       -28.8869 
  11   2.0000      -1.025733       -27.9116 
  12   2.0000      -0.956557       -26.0293 
  13   2.0000      -0.947001       -25.7692 
  14   2.0000      -0.893840       -24.3226 
  15   2.0000      -0.881421       -23.9847 
  16   2.0000      -0.865214       -23.5437 
  17   2.0000      -0.862635       -23.4735 
  18   2.0000      -0.838159       -22.8075 
  19   2.0000      -0.832898       -22.6643 
  20   2.0000      -0.779752       -21.2181 
  21   2.0000      -0.772891       -21.0314 
  22   2.0000      -0.728751       -19.8303 
  23   2.0000      -0.725540       -19.7430 
  24   2.0000      -0.690515       -18.7899 
  25   2.0000      -0.689037       -18.7496 
  26   2.0000      -0.675182       -18.3726 
  27   2.0000      -0.671130       -18.2624 
  28   2.0000      -0.658317       -17.9137 
  29   2.0000      -0.647926       -17.6310 
  30   2.0000      -0.613785       -16.7019 
  31   2.0000      -0.611691       -16.6449 
  32   2.0000      -0.589887       -16.0516 
  33   2.0000      -0.586568       -15.9613 
  34   2.0000      -0.578433       -15.7400 
  35   2.0000      -0.575886       -15.6707 
  36   2.0000      -0.574802       -15.6412 
  37   2.0000      -0.571904       -15.5623 
  38   2.0000      -0.555871       -15.1260 
  39   2.0000      -0.554984       -15.1019 
  40   2.0000      -0.532726       -14.4962 
  41   2.0000      -0.529621       -14.4117 
  42   2.0000      -0.519990       -14.1496 
  43   2.0000      -0.513865       -13.9830 
  44   2.0000      -0.512295       -13.9403 
  45   2.0000      -0.499268       -13.5858 
  46   2.0000      -0.493042       -13.4163 
  47   2.0000      -0.488234       -13.2855 
  48   2.0000      -0.483427       -13.1547 
  49   2.0000      -0.481707       -13.1079 
  50   2.0000      -0.477629       -12.9969 
  51   2.0000      -0.471174       -12.8213 
  52   2.0000      -0.467772       -12.7287 
  53   2.0000      -0.467215       -12.7136 
  54   2.0000      -0.462397       -12.5825 
  55   2.0000      -0.449555       -12.2330 
  56   2.0000      -0.436776       -11.8853 
  57   2.0000      -0.426978       -11.6187 
  58   2.0000      -0.346673        -9.4334 
  59   2.0000      -0.340501        -9.2655 
  60   2.0000      -0.305226        -8.3056 
  61   2.0000      -0.304147        -8.2763 
  62   0.0000      -0.002831        -0.0770 
  63   0.0000       0.006405         0.1743 
  64   0.0000       0.054532         1.4839 
  65   0.0000       0.055689         1.5154 
  66   0.0000       0.065954         1.7947 
  67   0.0000       0.079654         2.1675 
  68   0.0000       0.089379         2.4321 
  69   0.0000       0.093397         2.5415 
  70   0.0000       0.103784         2.8241 
  71   0.0000       0.104062         2.8317 
  72   0.0000       0.108463         2.9514 
  73   0.0000       0.111275         3.0280 
  74   0.0000       0.123629         3.3641 
  75   0.0000       0.126976         3.4552 
  76   0.0000       0.143136         3.8949 
  77   0.0000       0.143533         3.9057 
  78   0.0000       0.156717         4.2645 
  79   0.0000       0.159642         4.3441 
  80   0.0000       0.168093         4.5740 
  81   0.0000       0.168104         4.5743 
  82   0.0000       0.175120         4.7653 
  83   0.0000       0.186593         5.0775 
  84   0.0000       0.200132         5.4459 
  85   0.0000       0.202660         5.5147 
  86   0.0000       0.224323         6.1041 
  87   0.0000       0.232851         6.3362 
  88   0.0000       0.235180         6.3996 
  89   0.0000       0.236871         6.4456 
  90   0.0000       0.237100         6.4518 
  91   0.0000       0.238827         6.4988 
  92   0.0000       0.239308         6.5119 
  93   0.0000       0.239508         6.5174 
  94   0.0000       0.240003         6.5308 
  95   0.0000       0.241826         6.5804 
  96   0.0000       0.241942         6.5836 
  97   0.0000       0.243668         6.6305 
  98   0.0000       0.243838         6.6352 
  99   0.0000       0.247420         6.7326 
 100   0.0000       0.250033         6.8037 
 101   0.0000       0.258400         7.0314 
 102   0.0000       0.262673         7.1477 
 103   0.0000       0.263455         7.1690 
 104   0.0000       0.265778         7.2322 
 105   0.0000       0.267032         7.2663 
 106   0.0000       0.282137         7.6773 
 107   0.0000       0.286643         7.8000 
 108   0.0000       0.303962         8.2712 
 109   0.0000       0.308955         8.4071 
 110   0.0000       0.309535         8.4229 
 111   0.0000       0.312129         8.4935 
 112   0.0000       0.327645         8.9157 
 113   0.0000       0.332327         9.0431 
 114   0.0000       0.344923         9.3858 
 115   0.0000       0.351836         9.5739 
 116   0.0000       0.417853        11.3704 
 117   0.0000       0.421423        11.4675 
 118   0.0000       0.422668        11.5014 
 119   0.0000       0.432027        11.7561 
-------
TIMINGS
-------

Total SCF time: 0 days 0 hours 0 min 0 sec 

Total time                  ....       0.129 sec
Sum of individual times     ....       0.095 sec  ( 73.3%)

Fock matrix formation       ....       0.045 sec  ( 34.9%)
Diagonalization             ....       0.025 sec  ( 19.7%)
Density matrix formation    ....       0.005 sec  (  4.2%)
Population analysis         ....       0.000 sec  (  0.0%)
Initial guess               ....       0.003 sec  (  2.1%)
Orbital Transformation      ....       0.000 sec  (  0.0%)
Orbital Orthonormalization  ....       0.000 sec  (  0.0%)
DIIS solution               ....       0.011 sec  (  8.5%)
SOSCF solution              ....       0.005 sec  (  3.9%)

-------------------------   --------------------
FINAL SINGLE POINT ENERGY       -20.210640487350
-------------------------   --------------------


                            ***************************************
                            *     ORCA property calculations      *
                            ***************************************

                                    ---------------------
                                    Active property flags
                                    ---------------------
   (+) Dipole Moment


------------------------------------------------------------------------------
                       ORCA ELECTRIC PROPERTIES CALCULATION
------------------------------------------------------------------------------

Dipole Moment Calculation                       ... on
Quadrupole Moment Calculation                   ... off
Polarizability Calculation                      ... off
GBWName                                         ... /Users/mattyjones/GoogleDrive/Boise/Code/MorphCT/tests/output_EZ/donor_polymer/chromophores/input_orca/pair/00015-00017.gbw
Electron density file                           ... /Users/mattyjones/GoogleDrive/Boise/Code/MorphCT/tests/output_EZ/donor_polymer/chromophores/input_orca/pair/00015-00017.scfp.tmp

-------------
DIPOLE MOMENT
-------------
                                X             Y             Z
Electronic contribution:    152.28321     164.32685       1.20769
Nuclear contribution   :    -81.63005     -88.10785      -0.33318
                        -----------------------------------------
Total Dipole Moment    :     70.65316      76.21901       0.87450
                        -----------------------------------------
Magnitude (a.u.)       :    103.93253
Magnitude (Debye)      :    264.17550


Timings for individual modules:

Sum of individual times         ...        0.244 sec (=   0.004 min)
STO integral calculation        ...        0.079 sec (=   0.001 min)  32.2 %
SCF iterations                  ...        0.165 sec (=   0.003 min)  67.8 %
                             ****ORCA TERMINATED NORMALLY****
TOTAL RUN TIME: 0 days 0 hours 0 minutes 0 seconds 580 msec

