
                                 *****************
                                 * O   R   C   A *
                                 *****************

           --- An Ab Initio, DFT and Semiempirical electronic structure package ---

                  #######################################################
                  #                        -***-                        #
                  #  Department of molecular theory and spectroscopy    #
                  #              Directorship: Frank Neese              #
                  # Max Planck Institute for Chemical Energy Conversion #
                  #                  D-45470 Muelheim/Ruhr              #
                  #                       Germany                       #
                  #                                                     #
                  #                  All rights reserved                #
                  #                        -***-                        #
                  #######################################################


                         Program Version 4.0.1.2 - RELEASE -


 With contributions from (in alphabetic order):
   Daniel Aravena         : Magnetic Properties
   Michael Atanasov       : Ab Initio Ligand Field Theory
   Ute Becker             : Parallelization
   Martin Brehm           : Molecular dynamics
   Dmytro Bykov           : SCF Hessian
   Vijay G. Chilkuri      : MRCI spin determinant printing
   Dipayan Datta          : RHF DLPNO-CCSD density
   Achintya Kumar Dutta   : EOM-CC, STEOM-CC
   Dmitry Ganyushin       : Spin-Orbit,Spin-Spin,Magnetic field MRCI
   Yang Guo               : DLPNO-NEVPT2, CIM, IAO-localization
   Andreas Hansen         : Spin unrestricted coupled pair/coupled cluster methods
   Lee Huntington         : MR-EOM, pCC
   Robert Izsak           : Overlap fitted RIJCOSX, COSX-SCS-MP3, EOM
   Christian Kollmar      : KDIIS, OOCD, Brueckner-CCSD(T), CCSD density
   Simone Kossmann        : Meta GGA functionals, TD-DFT gradient, OOMP2, MP2 Hessian
   Martin Krupicka        : AUTO-CI
   Dagmar Lenk            : GEPOL surface
   Dimitrios Liakos       : Extrapolation schemes; parallel MDCI
   Dimitrios Manganas     : ROCIS; embedding schemes
   Dimitrios Pantazis     : SARC Basis sets
   Taras Petrenko         : DFT Hessian,TD-DFT gradient, ASA, ECA, R-Raman, ABS, FL, XAS/XES, NRVS
   Peter Pinski           : DLPNO-MP2
   Christoph Reimann      : Effective Core Potentials
   Marius Retegan         : Local ZFS, SOC
   Christoph Riplinger    : Optimizer, TS searches, QM/MM, DLPNO-CCSD(T), (RO)-DLPNO pert. Triples
   Tobias Risthaus        : Range-separated hybrids, TD-DFT gradient, RPA, STAB
   Michael Roemelt        : Restricted open shell CIS
   Masaaki Saitow         : Open-shell DLPNO
   Barbara Sandhoefer     : DKH picture change effects
   Kantharuban Sivalingam : CASSCF convergence, NEVPT2, FIC-MRCI
   Georgi Stoychev        : AutoAux
   Boris Wezisla          : Elementary symmetry handling
   Frank Wennmohs         : Technical directorship


 We gratefully acknowledge several colleagues who have allowed us to
 interface, adapt or use parts of their codes:
   Stefan Grimme, W. Hujo, H. Kruse,             : VdW corrections, initial TS optimization,
                  C. Bannwarth                     DFT functionals, gCP, sTDA/sTD-DF
   Ed Valeev                                     : LibInt (2-el integral package), F12 methods
   Garnet Chan, S. Sharma, J. Yang, R. Olivares  : DMRG
   Ulf Ekstrom                                   : XCFun DFT Library
   Mihaly Kallay                                 : mrcc  (arbitrary order and MRCC methods)
   Andreas Klamt, Michael Diedenhofen            : otool_cosmo (COSMO solvation model)
   Jiri Pittner, Ondrej Demel                    : Mk-CCSD
   Frank Weinhold                                : gennbo (NPA and NBO analysis)
   Christopher J. Cramer and Donald G. Truhlar   : smd solvation model


 Your calculation uses the libint2 library for the computation of 2-el integrals
 For citations please refer to: http://libint.valeyev.net

 This ORCA versions uses:
   CBLAS   interface :  Fast vector & matrix operations
   LAPACKE interface :  Fast linear algebra routines
   SCALAPACK package :  Parallel linear algebra routines


leaving
Your calculation utilizes the basis: def2-SVP
   F. Weigend and R. Ahlrichs, Phys. Chem. Chem. Phys. 7, 3297 (2005).

================================================================================
                                        WARNINGS
                       Please study these warnings very carefully!
================================================================================

Warning: TCutStore was < 0. Adjusted to Thresh (uncritical)

WARNING: Direct SCF is incompatible with Method<>HF and Method<>DFT
  ===> : conventional SCF is chosen

WARNING: The NDO methods need Guess=HUECKEL or Guess=HCORE or Guess=MOREAD
  ===> : Guess is set to Hueckel

WARNING: The NDO methods need %rel::SOCType==1
  ===> : %rel::SOCType is set to 1

WARNING: The NDO methods cannot have frozencore=1
  ===> : %method FrozenCore=0 end

INFO   : the flag for use of LIBINT has been found!

================================================================================
                                       INPUT FILE
================================================================================
NAME = /home/mattyjones/Software/morphct/tests/output_EZ/donor_polymer/chromophores/input_orca/pair/00012-00020.inp
|  1> # ================================================================
|  2> # Orca input file made by Matty Jones
|  3> # ================================================================
|  4> ! ZINDO/S 
|  5> ! NOPOP
|  6> ! NOMOPRINT
|  7> * xyz 0   1
|  8>  C  23.90285  -2.30401  8.49557
|  9>  C  23.01358  -3.33147  8.81401
| 10>  C  23.40347  -4.11068  9.94763
| 11>  C  24.60669  -3.69640  10.52724
| 12>  S  25.11763  -2.40598  9.61940
| 13>  H  22.05504  -3.54747  8.23059
| 14>  C  22.43905  -5.33171  10.40856
| 15>  C  22.78550  -6.71168  11.36406
| 16>  C  23.45266  -8.19560  10.88564
| 17>  H  24.15097  -7.98633  9.98816
| 18>  H  24.09483  -8.58333  11.76849
| 19>  H  21.68867  -7.03979  11.64899
| 20>  H  23.24779  -6.40269  12.35419
| 21>  H  22.00079  -5.81053  9.43025
| 22>  H  21.53804  -4.84622  10.97770
| 23>  C  22.36183  -9.33411  10.47265
| 24>  C  21.66889  -10.20378  11.75178
| 25>  C  20.22702  -9.53440  12.31054
| 26>  H  20.46147  -8.62989  12.99231
| 27>  H  19.64321  -10.33216  12.91261
| 28>  H  19.58940  -9.18839  11.40901
| 29>  H  21.45134  -11.27390  11.38565
| 30>  H  22.41661  -10.23674  12.62612
| 31>  H  21.50225  -8.84291  9.87578
| 32>  H  22.88202  -10.11407  9.79117
| 33>  C  -24.60047  2.28272  -10.78516
| 34>  C  -23.75939  3.37750  -10.58034
| 35>  C  -24.38433  4.47724  -9.91380
| 36>  C  -25.72564  4.24971  -9.59066
| 37>  S  -26.06305  2.72132  -10.13895
| 38>  H  -22.66760  3.42717  -10.90752
| 39>  C  -23.37958  5.73219  -9.68993
| 40>  C  -23.62545  7.30047  -10.27464
| 41>  C  -22.24708  8.24072  -9.90265
| 42>  H  -22.56822  9.34981  -9.94750
| 43>  H  -21.93047  7.98715  -8.82258
| 44>  H  -23.76097  7.26589  -11.41360
| 45>  H  -24.54415  7.76395  -9.76894
| 46>  H  -23.27732  5.87564  -8.53133
| 47>  H  -22.31184  5.44032  -10.07062
| 48>  C  -20.97657  8.00998  -10.91028
| 49>  C  -20.75201  9.00450  -12.26312
| 50>  C  -19.71849  10.31112  -12.01432
| 51>  H  -20.24715  11.09676  -11.35085
| 52>  H  -19.44849  10.78260  -13.03715
| 53>  H  -18.75274  9.94518  -11.49237
| 54>  H  -20.30843  8.35897  -13.10902
| 55>  H  -21.77954  9.41186  -12.58605
| 56>  H  -20.00488  8.09820  -10.28242
| 57>  H  -21.03392  6.92835  -11.32397
| 58>  H  23.81925  -1.60572  7.70247
| 59>  H  25.09085  -4.11872  11.37035
| 60>  H  -24.35582  1.36448  -11.25481
| 61>  H  -26.38808  4.91485  -9.09835
| 62> *
| 63> 
| 64>                          ****END OF INPUT****
================================================================================

                       ****************************
                       * Single Point Calculation *
                       ****************************

---------------------------------
CARTESIAN COORDINATES (ANGSTROEM)
---------------------------------
  C     23.902850   -2.304010    8.495570
  C     23.013580   -3.331470    8.814010
  C     23.403470   -4.110680    9.947630
  C     24.606690   -3.696400   10.527240
  S     25.117630   -2.405980    9.619400
  H     22.055040   -3.547470    8.230590
  C     22.439050   -5.331710   10.408560
  C     22.785500   -6.711680   11.364060
  C     23.452660   -8.195600   10.885640
  H     24.150970   -7.986330    9.988160
  H     24.094830   -8.583330   11.768490
  H     21.688670   -7.039790   11.648990
  H     23.247790   -6.402690   12.354190
  H     22.000790   -5.810530    9.430250
  H     21.538040   -4.846220   10.977700
  C     22.361830   -9.334110   10.472650
  C     21.668890  -10.203780   11.751780
  C     20.227020   -9.534400   12.310540
  H     20.461470   -8.629890   12.992310
  H     19.643210  -10.332160   12.912610
  H     19.589400   -9.188390   11.409010
  H     21.451340  -11.273900   11.385650
  H     22.416610  -10.236740   12.626120
  H     21.502250   -8.842910    9.875780
  H     22.882020  -10.114070    9.791170
  C    -24.600470    2.282720  -10.785160
  C    -23.759390    3.377500  -10.580340
  C    -24.384330    4.477240   -9.913800
  C    -25.725640    4.249710   -9.590660
  S    -26.063050    2.721320  -10.138950
  H    -22.667600    3.427170  -10.907520
  C    -23.379580    5.732190   -9.689930
  C    -23.625450    7.300470  -10.274640
  C    -22.247080    8.240720   -9.902650
  H    -22.568220    9.349810   -9.947500
  H    -21.930470    7.987150   -8.822580
  H    -23.760970    7.265890  -11.413600
  H    -24.544150    7.763950   -9.768940
  H    -23.277320    5.875640   -8.531330
  H    -22.311840    5.440320  -10.070620
  C    -20.976570    8.009980  -10.910280
  C    -20.752010    9.004500  -12.263120
  C    -19.718490   10.311120  -12.014320
  H    -20.247150   11.096760  -11.350850
  H    -19.448490   10.782600  -13.037150
  H    -18.752740    9.945180  -11.492370
  H    -20.308430    8.358970  -13.109020
  H    -21.779540    9.411860  -12.586050
  H    -20.004880    8.098200  -10.282420
  H    -21.033920    6.928350  -11.323970
  H     23.819250   -1.605720    7.702470
  H     25.090850   -4.118720   11.370350
  H    -24.355820    1.364480  -11.254810
  H    -26.388080    4.914850   -9.098350

----------------------------
CARTESIAN COORDINATES (A.U.)
----------------------------
  NO LB      ZA    FRAG     MASS         X           Y           Z
   0 C     4.0000    0    12.011   45.169840   -4.353948   16.054301
   1 C     4.0000    0    12.011   43.489364   -6.295566   16.656065
   2 C     4.0000    0    12.011   44.226149   -7.768059   18.798296
   3 C     4.0000    0    12.011   46.499905   -6.985184   19.893601
   4 S     6.0000    0    32.060   47.465442   -4.546643   18.178032
   5 H     1.0000    0     1.008   41.677985   -6.703747   15.553561
   6 C     4.0000    0    12.011   42.403659  -10.075472   19.669328
   7 C     4.0000    0    12.011   43.058355  -12.683237   21.474961
   8 C     4.0000    0    12.011   44.319105  -15.487440   20.570878
   9 H     1.0000    0     1.008   45.638719  -15.091977   18.874887
  10 H     1.0000    0     1.008   45.532630  -16.220143   22.239223
  11 H     1.0000    0     1.008   40.985647  -13.303275   22.013401
  12 H     1.0000    0     1.008   43.931956  -12.099331   23.346036
  13 H     1.0000    0     1.008   41.575468  -10.980310   17.820590
  14 H     1.0000    0     1.008   40.700997   -9.158029   20.744847
  15 C     4.0000    0    12.011   42.257735  -17.638912   19.790440
  16 C     4.0000    0    12.011   40.948268  -19.282350   22.207646
  17 C     4.0000    0    12.011   38.223528  -18.017405   23.263549
  18 H     1.0000    0     1.008   38.666575  -16.308129   24.551908
  19 H     1.0000    0     1.008   37.120287  -19.524953   24.401297
  20 H     1.0000    0     1.008   37.018601  -17.363541   21.559904
  21 H     1.0000    0     1.008   40.537158  -21.304583   21.515760
  22 H     1.0000    0     1.008   42.361254  -19.344635   23.859909
  23 H     1.0000    0     1.008   40.633364  -16.710678   18.662520
  24 H     1.0000    0     1.008   43.240751  -19.112822   18.502630
  25 C     4.0000    0    12.011  -46.488151    4.313716  -20.380999
  26 C     4.0000    0    12.011  -44.898740    6.382550  -19.993945
  27 C     4.0000    0    12.011  -46.079706    8.460757  -18.734367
  28 C     4.0000    0    12.011  -48.614414    8.030788  -18.123721
  29 S     6.0000    0    32.060  -49.252027    5.142550  -19.159839
  30 H     1.0000    0     1.008  -42.835556    6.476413  -20.612226
  31 C     4.0000    0    12.011  -44.181003   10.832269  -18.311314
  32 C     4.0000    0    12.011  -44.645630   13.795889  -19.416256
  33 C     4.0000    0    12.011  -42.040888   15.572704  -18.713297
  34 H     1.0000    0     1.008  -42.647755   17.668580  -18.798051
  35 H     1.0000    0     1.008  -41.442582   15.093526  -16.672260
  36 H     1.0000    0     1.008  -44.901726   13.730542  -21.568578
  37 H     1.0000    0     1.008  -46.381722   14.671739  -18.460621
  38 H     1.0000    0     1.008  -43.987760   11.103350  -16.121877
  39 H     1.0000    0     1.008  -42.163267   10.280715  -19.030714
  40 C     4.0000    0    12.011  -39.639973   15.136669  -20.617441
  41 C     4.0000    0    12.011  -39.215616   17.016039  -23.173938
  42 C     4.0000    0    12.011  -37.262546   19.485193  -22.703774
  43 H     1.0000    0     1.008  -38.261568   20.969837  -21.449998
  44 H     1.0000    0     1.008  -36.752320   20.376161  -24.636643
  45 H     1.0000    0     1.008  -35.437543   18.793667  -21.717432
  46 H     1.0000    0     1.008  -38.377371   15.796164  -24.772458
  47 H     1.0000    0     1.008  -41.157366   17.785838  -23.784188
  48 H     1.0000    0     1.008  -37.803745   15.303380  -19.430958
  49 H     1.0000    0     1.008  -39.748348   13.092684  -21.399202
  50 H     1.0000    0     1.008   45.011859   -3.034371   14.555559
  51 H     1.0000    0     1.008   47.414835   -7.783253   21.486848
  52 H     1.0000    0     1.008  -46.025830    2.578494  -21.268509
  53 H     1.0000    0     1.008  -49.866244    9.287720  -17.193390

--------------------------------
INTERNAL COORDINATES (ANGSTROEM)
--------------------------------
 C      0   0   0     0.000000000000     0.00000000     0.00000000
 C      1   0   0     1.395664436066     0.00000000     0.00000000
 C      2   1   0     1.429782060525   114.10181775     0.00000000
 C      3   2   1     1.398325440983   113.69234399     0.00000000
 S      1   2   3     1.658035644430   105.47993070     0.00000000
 H      2   1   3     1.142730864202   123.85749295   180.13045285
 C      3   2   1     1.622799020890   118.24218163   179.87832039
 C      7   3   2     1.713862612172   130.09483702   159.49133555
 C      8   7   3     1.695879337807   128.81380580   275.70292936
 H      9   8   7     1.156244411619   107.34925275    30.12320367
 H      9   8   7     1.158508085557   107.21351571   146.53460007
 H      8   7   3     1.179778507136    99.82518869   162.90612283
 H      8   7   3     1.135581032379   110.44496343    53.73599968
 H      7   3   2     1.174065959007   106.97924424    36.37543125
 H      7   3   2     1.171084924248   106.46023027   282.61331818
 C      9   8   7     1.629931240605   114.79650209   268.13676842
 C     16   9   8     1.694893893257   116.15500849   277.73226552
 C     17  16   9     1.685013774098   113.34522896    92.53818379
 H     18  17  16     1.156682962397   109.43021469   281.39766022
 H     18  17  16     1.157472858688   109.28645671   161.44069769
 H     18  17  16     1.157168321983   109.38678654    41.59889912
 H     17  16   9     1.151753443147   108.30395262   212.65165633
 H     17  16   9     1.150930925642   108.80894197   331.88188095
 H     16   9   8     1.156031579716   109.36923512    39.82319590
 H     16   9   8     1.159029865060   108.58206023   157.96509486
 C      6   2   1    50.718107977908   160.27383757   292.76932897
 C     26   6   2     1.395675480619    58.72050025    33.71465098
 C     27  26   6     1.429773983118   114.10144409   227.43248984
 C     28  27  26     1.398321092096   113.69351404     0.00000000
 S     26   6   2     1.658040283135   134.08596632   312.55469620
 H     27  26   6     1.140841472511   124.66566062    47.76474195
 C     28  27  26     1.623126563734   112.85677636   179.93849000
 C     32  28  27     1.691697372286   125.38882105   121.32031231
 C     33  32  28     1.709488367758   108.51136755   184.64387768
 H     34  33  32     1.155518520059   107.18065417   200.27379621
 H     34  33  32     1.153729102476   107.70370435   317.28711093
 H     33  32  28     1.147515284604   109.40760879   303.61999742
 H     33  32  28     1.146540836778   109.80135711    65.44037233
 H     32  28  27     1.171916793164   106.55966093   242.62071452
 H     32  28  27     1.170547598605   109.08748420   356.42875535
 C     34  33  32     1.637911726742   114.46209015    79.17042018
 C     41  34  33     1.694011006340   120.75811819    93.24223326
 C     42  41  34     1.684434876984   114.75741258    94.52958443
 H     43  42  41     1.156245668576   109.34697921   287.57300220
 H     43  42  41     1.158177274557   109.17008656   167.57877956
 H     43  42  41     1.157158998842   109.47492835    47.82010252
 H     42  41  34     1.152830866736   107.95383721   214.82128439
 H     42  41  34     1.151539775865   108.26122451   333.40643069
 H     41  34  33     1.160246699672   107.81892592   215.19820012
 H     41  34  33     1.159461899115   108.21282923   331.52585807
 H      1   2   3     1.060002591553   127.25973712   179.99979175
 H      4   3   2     1.059999792500   127.20560658   179.99996898
 H     26   6   2     1.059995020083    81.61780104   177.38086911
 H     29  28  27     1.060003353438   127.20636707   180.00034036

---------------------------
INTERNAL COORDINATES (A.U.)
---------------------------
 C      0   0   0     0.000000000000     0.00000000     0.00000000
 C      1   0   0     2.637423559019     0.00000000     0.00000000
 C      2   1   0     2.701896525586   114.10181775     0.00000000
 C      3   2   1     2.642452129552   113.69234399     0.00000000
 S      1   2   3     3.133233288252   105.47993070     0.00000000
 H      2   1   3     2.159448378121   123.85749295   180.13045285
 C      3   2   1     3.066645719877   118.24218163   179.87832039
 C      7   3   2     3.238730968171   130.09483702   159.49133555
 C      8   7   3     3.204747504631   128.81380580   275.70292936
 H      9   8   7     2.184985281837   107.34925275    30.12320367
 H      9   8   7     2.189263005635   107.21351571   146.53460007
 H      8   7   3     2.229458277173    99.82518869   162.90612283
 H      8   7   3     2.145937154073   110.44496343    53.73599968
 H      7   3   2     2.218663125684   106.97924424    36.37543125
 H      7   3   2     2.213029786392   106.46023027   282.61331818
 C      9   8   7     3.080123661866   114.79650209   268.13676842
 C     16   9   8     3.202885284311   116.15500849   277.73226552
 C     17  16   9     3.184214564930   113.34522896    92.53818379
 H     18  17  16     2.185814022703   109.43021469   281.39766022
 H     18  17  16     2.187306710368   109.28645671   161.44069769
 H     18  17  16     2.186731219396   109.38678654    41.59889912
 H     17  16   9     2.176498581348   108.30395262   212.65165633
 H     17  16   9     2.174944248525   108.80894197   331.88188095
 H     16   9   8     2.184583087827   109.36923512    39.82319590
 H     16   9   8     2.190249025998   108.58206023   157.96509486
 C      6   2   1    95.843334108892   160.27383757   292.76932897
 C     26   6   2     2.637444430198    58.72050025    33.71465098
 C     27  26   6     2.701881261498   114.10144409   227.43248984
 C     28  27  26     2.642443911347   113.69351404     0.00000000
 S     26   6   2     3.133242054135   134.08596632   312.55469620
 H     27  26   6     2.155877945264   124.66566062    47.76474195
 C     28  27  26     3.067264686151   112.85677636   179.93849000
 C     32  28  27     3.196844735095   125.38882105   121.32031231
 C     33  32  28     3.230464844187   108.51136755   184.64387768
 H     34  33  32     2.183613545586   107.18065417   200.27379621
 H     34  33  32     2.180232036414   107.70370435   317.28711093
 H     33  32  28     2.168489622390   109.40760879   303.61999742
 H     33  32  28     2.166648182868   109.80135711    65.44037233
 H     32  28  27     2.214601790823   106.55966093   242.62071452
 H     32  28  27     2.212014388083   109.08748420   356.42875535
 C     34  33  32     3.095204595081   114.46209015    79.17042018
 C     41  34  33     3.201216869830   120.75811819    93.24223326
 C     42  41  34     3.183120607925   114.75741258    94.52958443
 H     43  42  41     2.184987657141   109.34697921   287.57300220
 H     43  42  41     2.188637863444   109.17008656   167.57877956
 H     43  42  41     2.186713601213   109.47492835    47.82010252
 H     42  41  34     2.178534616863   107.95383721   214.82128439
 H     42  41  34     2.176094808703   108.26122451   333.40643069
 H     41  34  33     2.192548510166   107.81892592   215.19820012
 H     41  34  33     2.191065452044   108.21282923   331.52585807
 H      1   2   3     2.003114599283   127.25973712   179.99979175
 H      4   3   2     2.003109309838   127.20560658   179.99996898
 H     26   6   2     2.003100291277    81.61780104   177.38086911
 H     29  28  27     2.003116039036   127.20636707   180.00034036

----------------------------
SLATER BASIS SET DIM= 120
----------------------------
  0 C     2 shells
 l=0 nsto= 1
    2       1.625000000000        1.000000000000
 l=1 nsto= 1
    2       1.625000000000        1.000000000000
  1 C     2 shells
 l=0 nsto= 1
    2       1.625000000000        1.000000000000
 l=1 nsto= 1
    2       1.625000000000        1.000000000000
  2 C     2 shells
 l=0 nsto= 1
    2       1.625000000000        1.000000000000
 l=1 nsto= 1
    2       1.625000000000        1.000000000000
  3 C     2 shells
 l=0 nsto= 1
    2       1.625000000000        1.000000000000
 l=1 nsto= 1
    2       1.625000000000        1.000000000000
  4 S     2 shells
 l=0 nsto= 1
    3       1.925000000000        1.000000000000
 l=1 nsto= 1
    3       1.925000000000        1.000000000000
  5 H     1 shells
 l=0 nsto= 1
    1       1.200000000000        1.000000000000
  6 C     2 shells
 l=0 nsto= 1
    2       1.625000000000        1.000000000000
 l=1 nsto= 1
    2       1.625000000000        1.000000000000
  7 C     2 shells
 l=0 nsto= 1
    2       1.625000000000        1.000000000000
 l=1 nsto= 1
    2       1.625000000000        1.000000000000
  8 C     2 shells
 l=0 nsto= 1
    2       1.625000000000        1.000000000000
 l=1 nsto= 1
    2       1.625000000000        1.000000000000
  9 H     1 shells
 l=0 nsto= 1
    1       1.200000000000        1.000000000000
 10 H     1 shells
 l=0 nsto= 1
    1       1.200000000000        1.000000000000
 11 H     1 shells
 l=0 nsto= 1
    1       1.200000000000        1.000000000000
 12 H     1 shells
 l=0 nsto= 1
    1       1.200000000000        1.000000000000
 13 H     1 shells
 l=0 nsto= 1
    1       1.200000000000        1.000000000000
 14 H     1 shells
 l=0 nsto= 1
    1       1.200000000000        1.000000000000
 15 C     2 shells
 l=0 nsto= 1
    2       1.625000000000        1.000000000000
 l=1 nsto= 1
    2       1.625000000000        1.000000000000
 16 C     2 shells
 l=0 nsto= 1
    2       1.625000000000        1.000000000000
 l=1 nsto= 1
    2       1.625000000000        1.000000000000
 17 C     2 shells
 l=0 nsto= 1
    2       1.625000000000        1.000000000000
 l=1 nsto= 1
    2       1.625000000000        1.000000000000
 18 H     1 shells
 l=0 nsto= 1
    1       1.200000000000        1.000000000000
 19 H     1 shells
 l=0 nsto= 1
    1       1.200000000000        1.000000000000
 20 H     1 shells
 l=0 nsto= 1
    1       1.200000000000        1.000000000000
 21 H     1 shells
 l=0 nsto= 1
    1       1.200000000000        1.000000000000
 22 H     1 shells
 l=0 nsto= 1
    1       1.200000000000        1.000000000000
 23 H     1 shells
 l=0 nsto= 1
    1       1.200000000000        1.000000000000
 24 H     1 shells
 l=0 nsto= 1
    1       1.200000000000        1.000000000000
 25 C     2 shells
 l=0 nsto= 1
    2       1.625000000000        1.000000000000
 l=1 nsto= 1
    2       1.625000000000        1.000000000000
 26 C     2 shells
 l=0 nsto= 1
    2       1.625000000000        1.000000000000
 l=1 nsto= 1
    2       1.625000000000        1.000000000000
 27 C     2 shells
 l=0 nsto= 1
    2       1.625000000000        1.000000000000
 l=1 nsto= 1
    2       1.625000000000        1.000000000000
 28 C     2 shells
 l=0 nsto= 1
    2       1.625000000000        1.000000000000
 l=1 nsto= 1
    2       1.625000000000        1.000000000000
 29 S     2 shells
 l=0 nsto= 1
    3       1.925000000000        1.000000000000
 l=1 nsto= 1
    3       1.925000000000        1.000000000000
 30 H     1 shells
 l=0 nsto= 1
    1       1.200000000000        1.000000000000
 31 C     2 shells
 l=0 nsto= 1
    2       1.625000000000        1.000000000000
 l=1 nsto= 1
    2       1.625000000000        1.000000000000
 32 C     2 shells
 l=0 nsto= 1
    2       1.625000000000        1.000000000000
 l=1 nsto= 1
    2       1.625000000000        1.000000000000
 33 C     2 shells
 l=0 nsto= 1
    2       1.625000000000        1.000000000000
 l=1 nsto= 1
    2       1.625000000000        1.000000000000
 34 H     1 shells
 l=0 nsto= 1
    1       1.200000000000        1.000000000000
 35 H     1 shells
 l=0 nsto= 1
    1       1.200000000000        1.000000000000
 36 H     1 shells
 l=0 nsto= 1
    1       1.200000000000        1.000000000000
 37 H     1 shells
 l=0 nsto= 1
    1       1.200000000000        1.000000000000
 38 H     1 shells
 l=0 nsto= 1
    1       1.200000000000        1.000000000000
 39 H     1 shells
 l=0 nsto= 1
    1       1.200000000000        1.000000000000
 40 C     2 shells
 l=0 nsto= 1
    2       1.625000000000        1.000000000000
 l=1 nsto= 1
    2       1.625000000000        1.000000000000
 41 C     2 shells
 l=0 nsto= 1
    2       1.625000000000        1.000000000000
 l=1 nsto= 1
    2       1.625000000000        1.000000000000
 42 C     2 shells
 l=0 nsto= 1
    2       1.625000000000        1.000000000000
 l=1 nsto= 1
    2       1.625000000000        1.000000000000
 43 H     1 shells
 l=0 nsto= 1
    1       1.200000000000        1.000000000000
 44 H     1 shells
 l=0 nsto= 1
    1       1.200000000000        1.000000000000
 45 H     1 shells
 l=0 nsto= 1
    1       1.200000000000        1.000000000000
 46 H     1 shells
 l=0 nsto= 1
    1       1.200000000000        1.000000000000
 47 H     1 shells
 l=0 nsto= 1
    1       1.200000000000        1.000000000000
 48 H     1 shells
 l=0 nsto= 1
    1       1.200000000000        1.000000000000
 49 H     1 shells
 l=0 nsto= 1
    1       1.200000000000        1.000000000000
 50 H     1 shells
 l=0 nsto= 1
    1       1.200000000000        1.000000000000
 51 H     1 shells
 l=0 nsto= 1
    1       1.200000000000        1.000000000000
 52 H     1 shells
 l=0 nsto= 1
    1       1.200000000000        1.000000000000
 53 H     1 shells
 l=0 nsto= 1
    1       1.200000000000        1.000000000000
------------------------------------------------------------------------------
                           ORCA NDO INTEGRAL CALCULATION
------------------------------------------------------------------------------

--------------
NDO PARAMETERS
--------------

Gamma integral treatment              ... Mataga-Nishimoto
Nuclear repulsuion treatment          ... Direct (ZA*ZB/RAB)
Interaction factors:
s-s (sigma) =    1.0000
s-p (sigma) =    1.0000
s-d (sigma) =    1.0000
p-p (sigma) =    1.2670  p-p(pi) =    0.5850
p-d (sigma) =    1.0000  p-d(pi) =    1.0000
d-d (sigma) =    1.0000  d-d(pi) =    1.0000 d-d (delta) =    1.0000

fGamma parameter for Mataga-Nishimoto gamma integrals:    1.2000

--------------------------
Parameters for Element H :
--------------------------
 One-electron parameters (in eV)
  U(s)  =   -13.060000 Beta(s) =    12.000000 Neff(s) =     1.000000
 One-center electron repulsion parameters (in eV)
  G(s,s)=    12.850000
--------------------------
Parameters for Element C :
--------------------------
 One-electron parameters (in eV)
  U(s)  =   -50.870766 Beta(s) =    17.000000 Neff(s) =     2.000000
  U(p)  =   -41.599980 Beta(p) =    17.000000 Neff(p) =     2.000000 
 One-center electron repulsion parameters (in eV)
  G(s,s)=    11.110000
  G(s,p)=    11.110000 G(p,p)  =    11.110000
 Slater-Condon parameters (in eV)
 F2(p,p)=     4.5098 G1(s,p)=    6.8977
--------------------------
Parameters for Element S :
--------------------------
 One-electron parameters (in eV)
  U(s)  =   -69.509597 Beta(s) =    15.000000 Neff(s) =     2.000000
  U(p)  =   -60.725746 Beta(p) =    15.000000 Neff(p) =     4.000000 
 One-center electron repulsion parameters (in eV)
  G(s,s)=    10.090000
  G(s,p)=    10.090000 G(p,p)  =    10.090000
 Slater-Condon parameters (in eV)
 F2(p,p)=     4.5377 G1(s,p)=    3.0756

 Number of atoms                    ....   54
 Number of basis functions          ....  120

 Overlap integrals                  .... done
 One electron matrix                .... done
 Nuclear repulsion                  .... done
 Integral list                      .... done
 Electron-electron repulsion        .... done
-------------------------------------------------------------------------------
                                 ORCA SCF
-------------------------------------------------------------------------------

------------
SCF SETTINGS
------------
Hamiltonian:
 ZDO-Hamiltonian        Method          .... INDO


General Settings:
 Integral files         IntName         .... /home/mattyjones/Software/morphct/tests/output_EZ/donor_polymer/chromophores/input_orca/pair/00012-00020
 Hartree-Fock type      HFTyp           .... RHF
 Total Charge           Charge          ....    0
 Multiplicity           Mult            ....    1
 Number of Electrons    NEL             ....  124
 Basis Dimension        Dim             ....  120
 Nuclear Repulsion      ENuc            ....    623.7310334953 Eh

Convergence Acceleration:
 DIIS                   CNVDIIS         .... on
   Start iteration      DIISMaxIt       ....    12
   Startup error        DIISStart       ....  0.200000
   # of expansion vecs  DIISMaxEq       ....     5
   Bias factor          DIISBfac        ....   1.050
   Max. coefficient     DIISMaxC        ....  10.000
 Newton-Raphson         CNVNR           .... off
 SOSCF                  CNVSOSCF        .... on
   Start iteration      SOSCFMaxIt      ....   150
   Startup grad/error   SOSCFStart      ....  0.003300
 Level Shifting         CNVShift        .... on
   Level shift para.    LevelShift      ....    0.2500
   Turn off err/grad.   ShiftErr        ....    0.0010
 Zerner damping         CNVZerner       .... off
 Static damping         CNVDamp         .... on
   Fraction old density DampFac         ....    0.7000
   Max. Damping (<1)    DampMax         ....    0.9800
   Min. Damping (>=0)   DampMin         ....    0.0000
   Turn off err/grad.   DampErr         ....    0.1000
 Fernandez-Rico         CNVRico         .... off

SCF Procedure:
 Maximum # iterations   MaxIter         ....   125
 SCF integral mode      SCFMode         .... Conventional
 Integral Buffer length BufferLength    .... 1048576
 Integral index format  IndFormat       ....     0
 Integral value format  ValFormat       ....     0
 Integral Storage       Thresh          ....  1.000e-08 Eh

Convergence Tolerance:
 Convergence Check Mode ConvCheckMode   .... Total+1el-Energy
 Convergence forced     ConvForced      .... 0
 Energy Change          TolE            ....  1.000e-06 Eh
 1-El. energy change                    ....  1.000e-03 Eh
 Orbital Gradient       TolG            ....  5.000e-05
 Orbital Rotation angle TolX            ....  5.000e-05
 DIIS Error             TolErr          ....  1.000e-06


Diagonalization of the overlap matrix:
Smallest eigenvalue                        ... 1.697e-01
Time for diagonalization                   ...    0.003 sec
Threshold for overlap eigenvalues          ... 1.000e-08
Number of eigenvalues below threshold      ... 0
Time for construction of square roots      ...    0.000 sec
Total time needed                          ...    0.003 sec

-------------------------------
INITIAL GUESS: EXTENDED HUECKEL
-------------------------------
EHT matrix was read from disk
EHT matrix was diagonalized
Initial density was built
                      ------------------
                      INITIAL GUESS DONE
                      ------------------

 InCore treatment chosen:
   Memory dedicated               ...    1024 MB
   Memory needed                  ...      0 MB
   Number of tiny    integrals    ...       0
   Number of small   integrals    ...       0
   Number of regular integrals    ...    7392

--------------
SCF ITERATIONS
--------------
ITER       Energy         Delta-E        Max-DP      RMS-DP      [F,P]     Damp
  0    -20.9840522950   0.000000000000 0.04343845  0.00144398  0.0897131 0.7000
  1    -21.0258556313  -0.041803336311 0.04186414  0.00136022  0.0632115 0.7000
                               ***Turning on DIIS***
  2    -21.0567829714  -0.030927340086 0.10887061  0.00349128  0.0404636 0.0000
  3    -21.1385518356  -0.081768864239 0.01708285  0.00072021  0.0197455 0.0000
  4    -21.1226477740   0.015904061632 0.01354526  0.00049606  0.0077773 0.0000
  5    -21.1398631775  -0.017215403532 0.00949786  0.00033475  0.0045780 0.0000
  6    -21.1418039817  -0.001940804167 0.00698031  0.00023682  0.0025339 0.0000
                      *** Initiating the SOSCF procedure ***
                           *** Shutting down DIIS ***
                      *** Re-Reading the Fockian *** 
                      *** Removing any level shift *** 
ITER      Energy       Delta-E        Grad      Rot      Max-DP    RMS-DP
  7    -21.13797919   0.0038247877  0.003022  0.003022  0.004168  0.000133
  8    -21.13608588   0.0018933144  0.000803  0.002204  0.002063  0.000061
  9    -21.13610007  -0.0000141868  0.000350  0.002130  0.002305  0.000064
 10    -21.13610523  -0.0000051600  0.000033  0.000094  0.000142  0.000004
                 **** Energy Check signals convergence ****
              ***Rediagonalizing the Fockian in SOSCF/NRSCF***

               *****************************************************
               *                     SUCCESS                       *
               *           SCF CONVERGED AFTER  11 CYCLES          *
               *****************************************************


----------------
TOTAL SCF ENERGY
----------------

Total Energy       :          -21.13610528 Eh            -575.14266 eV

Components:
Nuclear Repulsion  :          623.73103350 Eh           16972.58429 eV
Electronic Energy  :         -644.86713877 Eh          -17547.72696 eV
One Electron Energy:        -1199.35439355 Eh          -32636.09224 eV
Two Electron Energy:          554.48725478 Eh           15088.36528 eV


---------------
SCF CONVERGENCE
---------------

  Last Energy change         ...   -4.9568e-08  Tolerance :   1.0000e-06
  Last MAX-Density change    ...    6.7008e-05  Tolerance :   1.0000e-05
  Last RMS-Density change    ...    1.4558e-06  Tolerance :   1.0000e-06
  Last Orbital Gradient      ...    1.3300e-05  Tolerance :   5.0000e-05
  Last Orbital Rotation      ...    2.6539e-05  Tolerance :   5.0000e-05

             **** THE GBW FILE WAS UPDATED (/home/mattyjones/Software/morphct/tests/output_EZ/donor_polymer/chromophores/input_orca/pair/00012-00020.gbw) ****
             **** DENSITY FILE WAS UPDATED (/home/mattyjones/Software/morphct/tests/output_EZ/donor_polymer/chromophores/input_orca/pair/00012-00020.scfp.tmp) ****
             **** ENERGY FILE WAS UPDATED (/home/mattyjones/Software/morphct/tests/output_EZ/donor_polymer/chromophores/input_orca/pair/00012-00020.en.tmp) ****
----------------
ORBITAL ENERGIES
----------------

  NO   OCC          E(Eh)            E(eV) 
   0   2.0000      -1.557059       -42.3697 
   1   2.0000      -1.555488       -42.3270 
   2   2.0000      -1.405119       -38.2352 
   3   2.0000      -1.403702       -38.1967 
   4   2.0000      -1.290645       -35.1202 
   5   2.0000      -1.273681       -34.6586 
   6   2.0000      -1.179801       -32.1040 
   7   2.0000      -1.168797       -31.8046 
   8   2.0000      -1.111855       -30.2551 
   9   2.0000      -1.111757       -30.2525 
  10   2.0000      -1.064152       -28.9570 
  11   2.0000      -1.056672       -28.7535 
  12   2.0000      -0.964281       -26.2394 
  13   2.0000      -0.956372       -26.0242 
  14   2.0000      -0.902800       -24.5664 
  15   2.0000      -0.890856       -24.2414 
  16   2.0000      -0.852329       -23.1931 
  17   2.0000      -0.840366       -22.8675 
  18   2.0000      -0.836580       -22.7645 
  19   2.0000      -0.833487       -22.6803 
  20   2.0000      -0.790489       -21.5103 
  21   2.0000      -0.782832       -21.3020 
  22   2.0000      -0.733878       -19.9698 
  23   2.0000      -0.713206       -19.4073 
  24   2.0000      -0.700237       -19.0544 
  25   2.0000      -0.697170       -18.9710 
  26   2.0000      -0.681945       -18.5567 
  27   2.0000      -0.673771       -18.3342 
  28   2.0000      -0.635528       -17.2936 
  29   2.0000      -0.628876       -17.1126 
  30   2.0000      -0.616127       -16.7657 
  31   2.0000      -0.605646       -16.4805 
  32   2.0000      -0.593795       -16.1580 
  33   2.0000      -0.589218       -16.0334 
  34   2.0000      -0.575972       -15.6730 
  35   2.0000      -0.575758       -15.6672 
  36   2.0000      -0.560549       -15.2533 
  37   2.0000      -0.560293       -15.2463 
  38   2.0000      -0.557897       -15.1812 
  39   2.0000      -0.552318       -15.0293 
  40   2.0000      -0.536138       -14.5891 
  41   2.0000      -0.527847       -14.3635 
  42   2.0000      -0.527429       -14.3521 
  43   2.0000      -0.523209       -14.2372 
  44   2.0000      -0.513358       -13.9692 
  45   2.0000      -0.505603       -13.7582 
  46   2.0000      -0.496976       -13.5234 
  47   2.0000      -0.496508       -13.5107 
  48   2.0000      -0.491843       -13.3837 
  49   2.0000      -0.486794       -13.2463 
  50   2.0000      -0.482767       -13.1368 
  51   2.0000      -0.476750       -12.9730 
  52   2.0000      -0.470701       -12.8084 
  53   2.0000      -0.469797       -12.7838 
  54   2.0000      -0.455939       -12.4067 
  55   2.0000      -0.451444       -12.2844 
  56   2.0000      -0.437036       -11.8924 
  57   2.0000      -0.434444       -11.8218 
  58   2.0000      -0.356878        -9.7112 
  59   2.0000      -0.356664        -9.7053 
  60   2.0000      -0.305725        -8.3192 
  61   2.0000      -0.304795        -8.2939 
  62   0.0000       0.007534         0.2050 
  63   0.0000       0.007796         0.2121 
  64   0.0000       0.061696         1.6788 
  65   0.0000       0.069403         1.8885 
  66   0.0000       0.073612         2.0031 
  67   0.0000       0.077928         2.1205 
  68   0.0000       0.084040         2.2868 
  69   0.0000       0.086342         2.3495 
  70   0.0000       0.102735         2.7956 
  71   0.0000       0.104593         2.8461 
  72   0.0000       0.106842         2.9073 
  73   0.0000       0.107894         2.9359 
  74   0.0000       0.123367         3.3570 
  75   0.0000       0.123422         3.3585 
  76   0.0000       0.142595         3.8802 
  77   0.0000       0.143238         3.8977 
  78   0.0000       0.157384         4.2826 
  79   0.0000       0.161277         4.3886 
  80   0.0000       0.165742         4.5101 
  81   0.0000       0.166531         4.5315 
  82   0.0000       0.168189         4.5767 
  83   0.0000       0.169424         4.6103 
  84   0.0000       0.202819         5.5190 
  85   0.0000       0.203499         5.5375 
  86   0.0000       0.224292         6.1033 
  87   0.0000       0.231189         6.2910 
  88   0.0000       0.232032         6.3139 
  89   0.0000       0.233533         6.3548 
  90   0.0000       0.234989         6.3944 
  91   0.0000       0.236354         6.4315 
  92   0.0000       0.238277         6.4839 
  93   0.0000       0.240092         6.5332 
  94   0.0000       0.240326         6.5396 
  95   0.0000       0.241588         6.5740 
  96   0.0000       0.242965         6.6114 
  97   0.0000       0.244113         6.6427 
  98   0.0000       0.245320         6.6755 
  99   0.0000       0.246096         6.6966 
 100   0.0000       0.251441         6.8421 
 101   0.0000       0.251923         6.8552 
 102   0.0000       0.260768         7.0959 
 103   0.0000       0.265505         7.2248 
 104   0.0000       0.266465         7.2509 
 105   0.0000       0.267781         7.2867 
 106   0.0000       0.277898         7.5620 
 107   0.0000       0.282665         7.6917 
 108   0.0000       0.294462         8.0127 
 109   0.0000       0.305028         8.3002 
 110   0.0000       0.310386         8.4460 
 111   0.0000       0.310444         8.4476 
 112   0.0000       0.337537         9.1848 
 113   0.0000       0.341009         9.2793 
 114   0.0000       0.348915         9.4945 
 115   0.0000       0.354090         9.6353 
 116   0.0000       0.415916        11.3176 
 117   0.0000       0.420776        11.4499 
 118   0.0000       0.428456        11.6589 
 119   0.0000       0.430566        11.7163 
-------
TIMINGS
-------

Total SCF time: 0 days 0 hours 0 min 0 sec 

Total time                  ....       0.119 sec
Sum of individual times     ....       0.096 sec  ( 81.2%)

Fock matrix formation       ....       0.045 sec  ( 38.0%)
Diagonalization             ....       0.029 sec  ( 24.7%)
Density matrix formation    ....       0.003 sec  (  2.5%)
Population analysis         ....       0.000 sec  (  0.0%)
Initial guess               ....       0.003 sec  (  2.5%)
Orbital Transformation      ....       0.000 sec  (  0.0%)
Orbital Orthonormalization  ....       0.000 sec  (  0.0%)
DIIS solution               ....       0.005 sec  (  3.9%)
SOSCF solution              ....       0.011 sec  (  9.7%)

-------------------------   --------------------
FINAL SINGLE POINT ENERGY       -21.136105275836
-------------------------   --------------------


                            ***************************************
                            *     ORCA property calculations      *
                            ***************************************

                                    ---------------------
                                    Active property flags
                                    ---------------------
   (+) Dipole Moment


------------------------------------------------------------------------------
                       ORCA ELECTRIC PROPERTIES CALCULATION
------------------------------------------------------------------------------

Dipole Moment Calculation                       ... on
Quadrupole Moment Calculation                   ... off
Polarizability Calculation                      ... off
GBWName                                         ... /home/mattyjones/Software/morphct/tests/output_EZ/donor_polymer/chromophores/input_orca/pair/00012-00020.gbw
Electron density file                           ... /home/mattyjones/Software/morphct/tests/output_EZ/donor_polymer/chromophores/input_orca/pair/00012-00020.scfp.tmp
The origin for moment calculation is the CENTER OF MASS  = (-0.245585,  0.069325 -0.149088)

-------------
DIPOLE MOMENT
-------------
                                X             Y             Z
Electronic contribution:    -23.99103       7.58914     -13.94132
Nuclear contribution   :     14.10731      -4.29976       8.20786
                        -----------------------------------------
Total Dipole Moment    :     -9.88372       3.28938      -5.73346
                        -----------------------------------------
Magnitude (a.u.)       :     11.89035
Magnitude (Debye)      :     30.22287


Timings for individual modules:

Sum of individual times         ...        0.164 sec (=   0.003 min)
STO integral calculation        ...        0.029 sec (=   0.000 min)  17.7 %
SCF iterations                  ...        0.135 sec (=   0.002 min)  82.3 %
                             ****ORCA TERMINATED NORMALLY****
TOTAL RUN TIME: 0 days 0 hours 0 minutes 0 seconds 514 msec

