
                                 *****************
                                 * O   R   C   A *
                                 *****************

           --- An Ab Initio, DFT and Semiempirical electronic structure package ---

                  #######################################################
                  #                        -***-                        #
                  #  Department of molecular theory and spectroscopy    #
                  #              Directorship: Frank Neese              #
                  # Max Planck Institute for Chemical Energy Conversion #
                  #                  D-45470 Muelheim/Ruhr              #
                  #                       Germany                       #
                  #                                                     #
                  #                  All rights reserved                #
                  #                        -***-                        #
                  #######################################################


                         Program Version 3.0.3 - RELEASE   -


 With contributions from (in alphabetic order):
   Ute Becker             : Parallelization
   Dmytro Bykov           : SCF Hessian
   Dmitry Ganyushin       : Spin-Orbit,Spin-Spin,Magnetic field MRCI
   Andreas Hansen         : Spin unrestricted coupled pair/coupled cluster methods
   Dimitrios Liakos       : Extrapolation schemes; parallel MDCI
   Robert Izsak           : Overlap fitted RIJCOSX, COSX-SCS-MP3
   Christian Kollmar      : KDIIS, OOCD, Brueckner-CCSD(T), CCSD density
   Simone Kossmann        : Meta GGA functionals, TD-DFT gradient, OOMP2, MP2 Hessian
   Taras Petrenko         : DFT Hessian,TD-DFT gradient, ASA and ECA modules, normal mode analysis, Resonance Raman, ABS, FL, XAS/XES, NRVS
   Christoph Reimann      : Effective Core Potentials
   Michael Roemelt        : Restricted open shell CIS
   Christoph Riplinger    : Improved optimizer, TS searches, QM/MM, DLPNO-CCSD
   Barbara Sandhoefer     : DKH picture change effects
   Igor Schapiro          : Molecular dynamics
   Kantharuban Sivalingam : CASSCF convergence, NEVPT2
   Boris Wezisla          : Elementary symmetry handling
   Frank Wennmohs         : Technical directorship


 We gratefully acknowledge several colleagues who have allowed us to
 interface, adapt or use parts of their codes:
   Stefan Grimme, W. Hujo, H. Kruse, T. Risthaus : VdW corrections, initial TS optimization,
                                                   DFT functionals, gCP
   Ed Valeev                                     : LibInt (2-el integral package), F12 methods
   Garnet Chan, S. Sharma, R. Olivares           : DMRG
   Ulf Ekstrom                                   : XCFun DFT Library
   Mihaly Kallay                                 : mrcc  (arbitrary order and MRCC methods)
   Andreas Klamt, Michael Diedenhofen            : otool_cosmo (COSMO solvation model)
   Frank Weinhold                                : gennbo (NPA and NBO analysis)
   Christopher J. Cramer and Donald G. Truhlar   : smd solvation model


 Your calculation uses the libint2 library for the computation of 2-el integrals
 For citations please refer to: http://libint.valeyev.net

 This ORCA versions uses:
   CBLAS   interface :  Fast vector & matrix operations
   LAPACKE interface :  Fast linear algebra routines
   SCALAPACK package :  Parallel linear algebra routines


leaving
================================================================================
                                        WARNINGS
                       Please study these warnings very carefully!
================================================================================
Now building the actual basis set

WARNING: Direct SCF is incompatible with Method<>HF and Method<>DFT
  ===> : conventional SCF is chosen

WARNING: The NDO methods need Guess=HUECKEL or Guess=HCORE or Guess=MOREAD
  ===> : Guess is set to Hueckel

WARNING: The NDO methods need %rel::SOCType==1
  ===> : %rel::SOCType is set to 1

WARNING: The NDO methods cannot have frozencore=1
  ===> : %method FrozenCore=0 end


INFO   : the flag for use of LIBINT has been found!

================================================================================
                                       INPUT FILE
================================================================================
NAME = /Users/mattyjones/GoogleDrive/Boise/Code/MorphCT/tests/output_EZ/donor_polymer/chromophores/input_orca/pair/00013-00024.inp
|  1> # ================================================================
|  2> # Orca input file made by Matty Jones
|  3> # ================================================================
|  4> ! ZINDO/S 
|  5> ! NOPOP
|  6> ! NOMOPRINT
|  7> * xyz 0   1
|  8>  C  -16.32396  -11.07923  7.32534
|  9>  C  -14.93885  -10.91067  7.35592
| 10>  C  -14.31097  -11.44754  8.52290
| 11>  C  -15.20482  -12.04302  9.41830
| 12>  S  -16.70385  -11.87629  8.72871
| 13>  H  -14.35733  -10.50125  6.46371
| 14>  C  -12.71206  -11.30947  8.62765
| 15>  C  -12.23891  -9.70167  8.27092
| 16>  C  -10.60517  -9.30008  8.28319
| 17>  H  -10.54531  -8.21455  8.69360
| 18>  H  -10.08417  -9.99975  9.04452
| 19>  H  -12.63919  -9.45410  7.22204
| 20>  H  -12.76787  -9.02738  9.04444
| 21>  H  -12.33882  -11.50343  9.70992
| 22>  H  -12.17514  -12.02144  7.89998
| 23>  C  -9.77750  -9.34051  6.87484
| 24>  C  -10.59253  -9.27920  5.38997
| 25>  C  -11.03666  -10.75683  4.72018
| 26>  H  -10.63209  -10.81946  3.63640
| 27>  H  -12.19126  -10.83893  4.70621
| 28>  H  -10.59434  -11.62099  5.34819
| 29>  H  -11.53388  -8.62816  5.50988
| 30>  H  -9.87897  -8.76343  4.63927
| 31>  H  -9.16203  -10.32375  6.85766
| 32>  H  -9.03347  -8.45177  6.86921
| 33>  C  10.44099  6.89885  -5.50660
| 34>  C  10.54051  8.03370  -6.31288
| 35>  C  10.04530  9.22838  -5.70314
| 36>  C  9.55226  9.03590  -4.40885
| 37>  S  9.75218  7.42043  -4.09147
| 38>  H  10.73104  7.95424  -7.43675
| 39>  C  10.15566  10.57889  -6.58671
| 40>  C  11.71609  10.61639  -7.32674
| 41>  C  12.25767  11.80514  -8.40382
| 42>  H  12.45236  12.76332  -7.78976
| 43>  H  11.40663  12.00651  -9.15874
| 44>  H  12.46235  10.61129  -6.44489
| 45>  H  11.83234  9.63823  -7.92348
| 46>  H  9.36215  10.58202  -7.42903
| 47>  H  10.03201  11.53024  -5.93854
| 48>  C  13.62256  11.39956  -9.21462
| 49>  C  15.09983  12.15331  -8.87388
| 50>  C  16.12434  11.44035  -7.74887
| 51>  H  15.56520  11.31141  -6.74517
| 52>  H  17.04624  12.12531  -7.59470
| 53>  H  16.47332  10.40923  -8.14170
| 54>  H  15.68197  12.21105  -9.87137
| 55>  H  14.86730  13.22364  -8.51420
| 56>  H  13.42957  11.55785  -10.34703
| 57>  H  13.81451  10.26551  -9.04588
| 58>  H  -16.99217  -10.76412  6.56521
| 59>  H  -14.97286  -12.50440  10.34401
| 60>  H  10.74225  5.91166  -5.74802
| 61>  H  9.13756  9.76903  -3.76531
| 62> *
| 63> 
| 64>                          ****END OF INPUT****
================================================================================

                       ****************************
                       * Single Point Calculation *
                       ****************************

---------------------------------
CARTESIAN COORDINATES (ANGSTROEM)
---------------------------------
  C    -16.323960  -11.079230    7.325340
  C    -14.938850  -10.910670    7.355920
  C    -14.310970  -11.447540    8.522900
  C    -15.204820  -12.043020    9.418300
  S    -16.703850  -11.876290    8.728710
  H    -14.357330  -10.501250    6.463710
  C    -12.712060  -11.309470    8.627650
  C    -12.238910   -9.701670    8.270920
  C    -10.605170   -9.300080    8.283190
  H    -10.545310   -8.214550    8.693600
  H    -10.084170   -9.999750    9.044520
  H    -12.639190   -9.454100    7.222040
  H    -12.767870   -9.027380    9.044440
  H    -12.338820  -11.503430    9.709920
  H    -12.175140  -12.021440    7.899980
  C     -9.777500   -9.340510    6.874840
  C    -10.592530   -9.279200    5.389970
  C    -11.036660  -10.756830    4.720180
  H    -10.632090  -10.819460    3.636400
  H    -12.191260  -10.838930    4.706210
  H    -10.594340  -11.620990    5.348190
  H    -11.533880   -8.628160    5.509880
  H     -9.878970   -8.763430    4.639270
  H     -9.162030  -10.323750    6.857660
  H     -9.033470   -8.451770    6.869210
  C     10.440990    6.898850   -5.506600
  C     10.540510    8.033700   -6.312880
  C     10.045300    9.228380   -5.703140
  C      9.552260    9.035900   -4.408850
  S      9.752180    7.420430   -4.091470
  H     10.731040    7.954240   -7.436750
  C     10.155660   10.578890   -6.586710
  C     11.716090   10.616390   -7.326740
  C     12.257670   11.805140   -8.403820
  H     12.452360   12.763320   -7.789760
  H     11.406630   12.006510   -9.158740
  H     12.462350   10.611290   -6.444890
  H     11.832340    9.638230   -7.923480
  H      9.362150   10.582020   -7.429030
  H     10.032010   11.530240   -5.938540
  C     13.622560   11.399560   -9.214620
  C     15.099830   12.153310   -8.873880
  C     16.124340   11.440350   -7.748870
  H     15.565200   11.311410   -6.745170
  H     17.046240   12.125310   -7.594700
  H     16.473320   10.409230   -8.141700
  H     15.681970   12.211050   -9.871370
  H     14.867300   13.223640   -8.514200
  H     13.429570   11.557850  -10.347030
  H     13.814510   10.265510   -9.045880
  H    -16.992170  -10.764120    6.565210
  H    -14.972860  -12.504400   10.344010
  H     10.742250    5.911660   -5.748020
  H      9.137560    9.769030   -3.765310

----------------------------
CARTESIAN COORDINATES (A.U.)
----------------------------
  NO LB      ZA    FRAG    MASS        X           Y           Z
   0 C     4.0000    0    12.011        -30.847813821085154        -20.936710474724350         13.842886437858700
   1 C     4.0000    0    12.011        -28.230335255729493        -20.618178237590580         13.900674263034015
   2 C     4.0000    0    12.011        -27.043814010763015        -21.632715507108884         16.105946866797435
   3 C     4.0000    0    12.011        -28.732945715568526        -22.758009625336314         17.798007647110524
   4 S     6.0000    0    32.060        -31.565701882100498        -22.442935587027620         16.494871402419768
   5 H     1.0000    0     1.008        -27.131421714331601        -19.844486563840544         12.214641709088133
   6 C     4.0000    0    12.011        -24.022311997974985        -21.371801019798376         16.303895679325684
   7 C     4.0000    0    12.011        -23.128188077710146        -18.333499341679790         15.629773675571959
   8 C     4.0000    0    12.011        -20.040866903677639        -17.574604223558353         15.652960615235171
   9 H     1.0000    0     1.008        -19.927747897301117        -15.523249813402817         16.428523117857793
  10 H     1.0000    0     1.008        -19.056319587904667        -18.896788907679039         17.091665812773439
  11 H     1.0000    0     1.008        -23.884607654596142        -17.865659842704908         13.647677728224636
  12 H     1.0000    0     1.008        -24.127777613509132        -17.059275906838032         17.091514634682724
  13 H     1.0000    0     1.008        -23.316990615750218        -21.738332300733745         18.349089582284641
  14 H     1.0000    0     1.008        -23.007680242149988        -22.717229335366291         14.928798663455209
  15 C     4.0000    0    12.011        -18.476797274415038        -17.651005851152789         12.991564814527177
  16 C     4.0000    0    12.011        -20.016980765344876        -17.535146741882077         10.185567170051529
  17 C     4.0000    0    12.011        -20.856264833203319        -20.327462769148138          8.919847502812413
  18 H     1.0000    0     1.008        -20.091738331202802        -20.445816316915625          6.871800113391240
  19 H     1.0000    0     1.008        -23.038142627428797        -20.482609284743070          8.893448028721533
  20 H     1.0000    0     1.008        -20.020401169647275        -21.960488505037528         10.106614412176299
  21 H     1.0000    0     1.008        -21.795874461511644        -16.304859439653985         10.412164230770026
  22 H     1.0000    0     1.008        -18.668547785224028        -16.560482693789513          8.766949761316845
  23 H     1.0000    0     1.008        -17.313727530770525        -19.509060175069521         12.959099319546411
  24 H     1.0000    0     1.008        -17.070784338993608        -15.971530646891617         12.980925656393200
  25 C     4.0000    0    12.011         19.730611667010447         13.036937139002628        -10.405965929050764
  26 C     4.0000    0    12.011         19.918677211858292         15.181492842083159        -11.929614316308792
  27 C     4.0000    0    12.011         18.982865933079147         17.439110859756198        -10.777372703411649
  28 C     4.0000    0    12.011         18.051155360010615         17.075376373499036         -8.331519065538711
  29 S     6.0000    0    32.060         18.428949408704149         14.022580495933273         -7.731757785154784
  30 H     1.0000    0     1.008         20.278726732154308         15.031335203481778        -14.053420826438868
  31 C     4.0000    0    12.011         19.191416109218697         19.991204900878188        -12.447078023560447
  32 C     4.0000    0    12.011         22.140201460373437         20.062069630900240        -13.845532054446192
  33 C     4.0000    0    12.011         23.163639339982506         22.308481572599124        -15.880918278770093
  34 H     1.0000    0     1.008         23.531550120995639         24.119179359599791        -14.720513048974409
  35 H     1.0000    0     1.008         21.555406810970165         22.689015724186849        -17.307510331789924
  36 H     1.0000    0     1.008         23.550428485073510         20.052432027617240        -12.179077063247735
  37 H     1.0000    0     1.008         22.359882123441782         18.213615115743824        -14.973207227602359
  38 H     1.0000    0     1.008         17.691899524690847         19.997119743677363        -14.038832140684995
  39 H     1.0000    0     1.008         18.957751472759334         21.788995858384173        -11.222214235336709
  40 C     4.0000    0    12.011         25.742907642910286         21.542046447203344        -17.413108228153444
  41 C     4.0000    0    12.011         28.534543368768134         22.966427520646487        -16.769202945281116
  42 C     4.0000    0    12.011         30.470586690231794         21.619128376205992        -14.643242147358370
  43 H     1.0000    0     1.008         29.413965219711066         21.375467088498187        -12.746524026741609
  44 H     1.0000    0     1.008         32.212725213093798         22.913515188896692        -14.351903069291730
  45 H     1.0000    0     1.008         31.130063316447636         19.670593964997114        -15.385583264546655
  46 H     1.0000    0     1.008         29.634628540369050         23.075540307619100        -18.654185866606227
  47 H     1.0000    0     1.008         28.095125350847425         24.989058093566420        -16.089506249432322
  48 H     1.0000    0     1.008         25.378209396324824         21.841171196941740        -19.553052999467209
  49 H     1.0000    0     1.008         26.105640574316471         19.399002525029950        -17.094235840315573
  50 H     1.0000    0     1.008        -32.110547721032681        -20.341238872664423         12.406448911681142
  51 H     1.0000    0     1.008        -28.294604841544153        -23.629891469004900         19.547346026542769
  52 H     1.0000    0     1.008         20.299910562115567         11.171418396856907        -10.862183612302033
  53 H     1.0000    0     1.008         17.267485932273473         18.460791294060726         -7.115404709315028

--------------------------------
INTERNAL COORDINATES (ANGSTROEM)
--------------------------------
 C      0   0   0   0.000000     0.000     0.000
 C      1   0   0   1.395664     0.000     0.000
 C      2   1   0   1.429792   114.101     0.000
 C      3   2   1   1.398322   113.693     0.000
 S      1   2   3   1.658031   105.480     0.000
 H      2   1   3   1.140977   122.142   172.559
 C      3   2   1   1.608275   117.226   179.312
 C      7   3   2   1.713519   109.969    48.184
 C      8   7   3   1.682418   119.379   181.146
 H      9   8   7   1.162065   105.996   215.492
 H      9   8   7   1.157844   107.308   330.714
 H      8   7   3   1.149637   107.209   302.935
 H      8   7   3   1.154469   106.381    59.471
 H      7   3   2   1.161136   111.465   164.443
 H      7   3   2   1.150951   111.685   287.462
 C      9   8   7   1.634051   118.664    94.558
 C     16   9   8   1.694955   120.703    19.853
 C     17  16   9   1.682041   116.362   269.667
 H     18  17  16   1.158524   109.135   233.451
 H     18  17  16   1.157600   109.297   113.771
 H     18  17  16   1.156208   109.833   353.524
 H     17  16   9   1.150813   108.815    32.971
 H     17  16   9   1.157038   106.736   150.059
 H     16   9   8   1.160112   107.605   258.434
 H     16   9   8   1.159082   108.081   142.018
 C     23  17  16  27.588883   161.066   335.986
 C     26  23  17   1.395663   136.601   245.065
 C     27  26  23   1.429782   114.102    68.065
 C     28  27  26   1.398329   113.693     0.000
 S     26  23  17   1.658040    63.815   330.067
 H     27  26  23   1.142672   121.570   263.661
 C     28  27  26   1.617638   116.169   179.169
 C     32  28  27   1.727424   108.285   316.271
 C     33  32  28   1.693085   125.221   176.874
 H     34  33  32   1.154592   107.354    72.880
 H     34  33  32   1.155302   107.604   315.578
 H     33  32  28   1.155244   104.857   299.865
 H     33  32  28   1.151699   107.140    55.675
 H     32  28  27   1.157226   110.674    74.361
 H     32  28  27   1.157791   111.897   196.648
 C     34  33  32   1.638541   114.045   193.936
 C     41  34  33   1.693095   121.133   251.117
 C     42  41  34   1.680351   118.544    92.634
 H     43  42  41   1.156147   109.492   303.441
 H     43  42  41   1.158809   108.864   183.661
 H     43  42  41   1.157286   109.550    64.087
 H     42  41  34   1.156377   106.731   213.320
 H     42  41  34   1.152843   107.465   330.037
 H     41  34  33   1.159592   108.108   128.237
 H     41  34  33   1.162492   107.890    12.141
 H      1   2   3   1.059998   127.260   180.000
 H      4   3   2   1.060008   127.206   180.000
 H     26  23  17   1.059993    76.372   114.500
 H     29  28  27   1.060000   127.206   180.000

---------------------------
INTERNAL COORDINATES (A.U.)
---------------------------
 C      0   0   0   0.000000     0.000     0.000
 C      1   0   0   2.637422     0.000     0.000
 C      2   1   0   2.701915   114.101     0.000
 C      3   2   1   2.642446   113.693     0.000
 S      1   2   3   3.133225   105.480     0.000
 H      2   1   3   2.156134   122.142   172.559
 C      3   2   1   3.039200   117.226   179.312
 C      7   3   2   3.238082   109.969    48.184
 C      8   7   3   3.179310   119.379   181.146
 H      9   8   7   2.195985   105.996   215.492
 H      9   8   7   2.188008   107.308   330.714
 H      8   7   3   2.172498   107.209   302.935
 H      8   7   3   2.181630   106.381    59.471
 H      7   3   2   2.194229   111.465   164.443
 H      7   3   2   2.174982   111.685   287.462
 C      9   8   7   3.087908   118.664    94.558
 C     16   9   8   3.203000   120.703    19.853
 C     17  16   9   3.178596   116.362   269.667
 H     18  17  16   2.189294   109.135   233.451
 H     18  17  16   2.187546   109.297   113.771
 H     18  17  16   2.184916   109.833   353.524
 H     17  16   9   2.174722   108.815    32.971
 H     17  16   9   2.186485   106.736   150.059
 H     16   9   8   2.192294   107.605   258.434
 H     16   9   8   2.190348   108.081   142.018
 C     23  17  16  52.135433   161.066   335.986
 C     26  23  17   2.637422   136.601   245.065
 C     27  26  23   2.701896   114.102    68.065
 C     28  27  26   2.642459   113.693     0.000
 S     26  23  17   3.133242    63.815   330.067
 H     27  26  23   2.159337   121.570   263.661
 C     28  27  26   3.056893   116.169   179.169
 C     32  28  27   3.264358   108.285   316.271
 C     33  32  28   3.199467   125.221   176.874
 H     34  33  32   2.181863   107.354    72.880
 H     34  33  32   2.183205   107.604   315.578
 H     33  32  28   2.183095   104.857   299.865
 H     33  32  28   2.176395   107.140    55.675
 H     32  28  27   2.186839   110.674    74.361
 H     32  28  27   2.187908   111.897   196.648
 C     34  33  32   3.096394   114.045   193.936
 C     41  34  33   3.199485   121.133   251.117
 C     42  41  34   3.175404   118.544    92.634
 H     43  42  41   2.184802   109.492   303.441
 H     43  42  41   2.189832   108.864   183.661
 H     43  42  41   2.186954   109.550    64.087
 H     42  41  34   2.185235   106.731   213.320
 H     42  41  34   2.178557   107.465   330.037
 H     41  34  33   2.191311   108.108   128.237
 H     41  34  33   2.196791   107.890    12.141
 H      1   2   3   2.003107   127.260   180.000
 H      4   3   2   2.003124   127.206   180.000
 H     26  23  17   2.003097    76.372   114.500
 H     29  28  27   2.003109   127.206   180.000

----------------------------
SLATER BASIS SET DIM= 120
----------------------------
  0 C     2 shells
 l=0 nsto= 1
    2       1.625000000000        1.000000000000
 l=1 nsto= 1
    2       1.625000000000        1.000000000000
  1 C     2 shells
 l=0 nsto= 1
    2       1.625000000000        1.000000000000
 l=1 nsto= 1
    2       1.625000000000        1.000000000000
  2 C     2 shells
 l=0 nsto= 1
    2       1.625000000000        1.000000000000
 l=1 nsto= 1
    2       1.625000000000        1.000000000000
  3 C     2 shells
 l=0 nsto= 1
    2       1.625000000000        1.000000000000
 l=1 nsto= 1
    2       1.625000000000        1.000000000000
  4 S     2 shells
 l=0 nsto= 1
    3       1.925000000000        1.000000000000
 l=1 nsto= 1
    3       1.925000000000        1.000000000000
  5 H     1 shells
 l=0 nsto= 1
    1       1.200000000000        1.000000000000
  6 C     2 shells
 l=0 nsto= 1
    2       1.625000000000        1.000000000000
 l=1 nsto= 1
    2       1.625000000000        1.000000000000
  7 C     2 shells
 l=0 nsto= 1
    2       1.625000000000        1.000000000000
 l=1 nsto= 1
    2       1.625000000000        1.000000000000
  8 C     2 shells
 l=0 nsto= 1
    2       1.625000000000        1.000000000000
 l=1 nsto= 1
    2       1.625000000000        1.000000000000
  9 H     1 shells
 l=0 nsto= 1
    1       1.200000000000        1.000000000000
 10 H     1 shells
 l=0 nsto= 1
    1       1.200000000000        1.000000000000
 11 H     1 shells
 l=0 nsto= 1
    1       1.200000000000        1.000000000000
 12 H     1 shells
 l=0 nsto= 1
    1       1.200000000000        1.000000000000
 13 H     1 shells
 l=0 nsto= 1
    1       1.200000000000        1.000000000000
 14 H     1 shells
 l=0 nsto= 1
    1       1.200000000000        1.000000000000
 15 C     2 shells
 l=0 nsto= 1
    2       1.625000000000        1.000000000000
 l=1 nsto= 1
    2       1.625000000000        1.000000000000
 16 C     2 shells
 l=0 nsto= 1
    2       1.625000000000        1.000000000000
 l=1 nsto= 1
    2       1.625000000000        1.000000000000
 17 C     2 shells
 l=0 nsto= 1
    2       1.625000000000        1.000000000000
 l=1 nsto= 1
    2       1.625000000000        1.000000000000
 18 H     1 shells
 l=0 nsto= 1
    1       1.200000000000        1.000000000000
 19 H     1 shells
 l=0 nsto= 1
    1       1.200000000000        1.000000000000
 20 H     1 shells
 l=0 nsto= 1
    1       1.200000000000        1.000000000000
 21 H     1 shells
 l=0 nsto= 1
    1       1.200000000000        1.000000000000
 22 H     1 shells
 l=0 nsto= 1
    1       1.200000000000        1.000000000000
 23 H     1 shells
 l=0 nsto= 1
    1       1.200000000000        1.000000000000
 24 H     1 shells
 l=0 nsto= 1
    1       1.200000000000        1.000000000000
 25 C     2 shells
 l=0 nsto= 1
    2       1.625000000000        1.000000000000
 l=1 nsto= 1
    2       1.625000000000        1.000000000000
 26 C     2 shells
 l=0 nsto= 1
    2       1.625000000000        1.000000000000
 l=1 nsto= 1
    2       1.625000000000        1.000000000000
 27 C     2 shells
 l=0 nsto= 1
    2       1.625000000000        1.000000000000
 l=1 nsto= 1
    2       1.625000000000        1.000000000000
 28 C     2 shells
 l=0 nsto= 1
    2       1.625000000000        1.000000000000
 l=1 nsto= 1
    2       1.625000000000        1.000000000000
 29 S     2 shells
 l=0 nsto= 1
    3       1.925000000000        1.000000000000
 l=1 nsto= 1
    3       1.925000000000        1.000000000000
 30 H     1 shells
 l=0 nsto= 1
    1       1.200000000000        1.000000000000
 31 C     2 shells
 l=0 nsto= 1
    2       1.625000000000        1.000000000000
 l=1 nsto= 1
    2       1.625000000000        1.000000000000
 32 C     2 shells
 l=0 nsto= 1
    2       1.625000000000        1.000000000000
 l=1 nsto= 1
    2       1.625000000000        1.000000000000
 33 C     2 shells
 l=0 nsto= 1
    2       1.625000000000        1.000000000000
 l=1 nsto= 1
    2       1.625000000000        1.000000000000
 34 H     1 shells
 l=0 nsto= 1
    1       1.200000000000        1.000000000000
 35 H     1 shells
 l=0 nsto= 1
    1       1.200000000000        1.000000000000
 36 H     1 shells
 l=0 nsto= 1
    1       1.200000000000        1.000000000000
 37 H     1 shells
 l=0 nsto= 1
    1       1.200000000000        1.000000000000
 38 H     1 shells
 l=0 nsto= 1
    1       1.200000000000        1.000000000000
 39 H     1 shells
 l=0 nsto= 1
    1       1.200000000000        1.000000000000
 40 C     2 shells
 l=0 nsto= 1
    2       1.625000000000        1.000000000000
 l=1 nsto= 1
    2       1.625000000000        1.000000000000
 41 C     2 shells
 l=0 nsto= 1
    2       1.625000000000        1.000000000000
 l=1 nsto= 1
    2       1.625000000000        1.000000000000
 42 C     2 shells
 l=0 nsto= 1
    2       1.625000000000        1.000000000000
 l=1 nsto= 1
    2       1.625000000000        1.000000000000
 43 H     1 shells
 l=0 nsto= 1
    1       1.200000000000        1.000000000000
 44 H     1 shells
 l=0 nsto= 1
    1       1.200000000000        1.000000000000
 45 H     1 shells
 l=0 nsto= 1
    1       1.200000000000        1.000000000000
 46 H     1 shells
 l=0 nsto= 1
    1       1.200000000000        1.000000000000
 47 H     1 shells
 l=0 nsto= 1
    1       1.200000000000        1.000000000000
 48 H     1 shells
 l=0 nsto= 1
    1       1.200000000000        1.000000000000
 49 H     1 shells
 l=0 nsto= 1
    1       1.200000000000        1.000000000000
 50 H     1 shells
 l=0 nsto= 1
    1       1.200000000000        1.000000000000
 51 H     1 shells
 l=0 nsto= 1
    1       1.200000000000        1.000000000000
 52 H     1 shells
 l=0 nsto= 1
    1       1.200000000000        1.000000000000
 53 H     1 shells
 l=0 nsto= 1
    1       1.200000000000        1.000000000000
------------------------------------------------------------------------------
                           ORCA NDO INTEGRAL CALCULATION
------------------------------------------------------------------------------

--------------
NDO PARAMETERS
--------------

Gamma integral treatment              ... Mataga-Nishimoto
Nuclear repulsuion treatment          ... Direct (ZA*ZB/RAB)
Interaction factors:
s-s (sigma) =    1.0000
s-p (sigma) =    1.0000
s-d (sigma) =    1.0000
p-p (sigma) =    1.2670  p-p(pi) =    0.5850
p-d (sigma) =    1.0000  p-d(pi) =    1.0000
d-d (sigma) =    1.0000  d-d(pi) =    1.0000 d-d (delta) =    1.0000

fGamma parameter for Mataga-Nishimoto gamma integrals:    1.2000

--------------------------
Parameters for Element H :
--------------------------
 One-electron parameters (in eV)
  U(s)  =   -13.060000 Beta(s) =    12.000000 Neff(s) =     1.000000
 One-center electron repulsion parameters (in eV)
  G(s,s)=    12.850000
--------------------------
Parameters for Element C :
--------------------------
 One-electron parameters (in eV)
  U(s)  =   -50.870766 Beta(s) =    17.000000 Neff(s) =     2.000000
  U(p)  =   -41.599980 Beta(p) =    17.000000 Neff(p) =     2.000000 
 One-center electron repulsion parameters (in eV)
  G(s,s)=    11.110000
  G(s,p)=    11.110000 G(p,p)  =    11.110000
 Slater-Condon parameters (in eV)
 F2(p,p)=     4.5098 G1(s,p)=    6.8977
--------------------------
Parameters for Element S :
--------------------------
 One-electron parameters (in eV)
  U(s)  =   -69.509597 Beta(s) =    15.000000 Neff(s) =     2.000000
  U(p)  =   -60.725746 Beta(p) =    15.000000 Neff(p) =     4.000000 
 One-center electron repulsion parameters (in eV)
  G(s,s)=    10.090000
  G(s,p)=    10.090000 G(p,p)  =    10.090000
 Slater-Condon parameters (in eV)
 F2(p,p)=     4.5377 G1(s,p)=    3.0756

 Number of atoms                    ....   54
 Number of basis functions          ....  120

 Overlap integrals                  .... done
 One electron matrix                .... done
 Nuclear repulsion                  .... done
 Integral list                      .... done
 Electron-electron repulsion        .... done
-------------------------------------------------------------------------------
                                 ORCA SCF
-------------------------------------------------------------------------------

------------
SCF SETTINGS
------------
Hamiltonian:
 ZDO-Hamiltonian        Method          .... INDO


General Settings:
 Integral files         IntName         .... /Users/mattyjones/GoogleDrive/Boise/Code/MorphCT/tests/output_EZ/donor_polymer/chromophores/input_orca/pair/00013-00024
 Hartree-Fock type      HFTyp           .... RHF
 Total Charge           Charge          ....    0
 Multiplicity           Mult            ....    1
 Number of Electrons    NEL             ....  124
 Basis Dimension        Dim             ....  120
 Nuclear Repulsion      ENuc            ....    656.1885706376 Eh

Convergence Acceleration:
 DIIS                   CNVDIIS         .... on
   Start iteration      DIISMaxIt       ....    12
   Startup error        DIISStart       ....  0.200000
   # of expansion vecs  DIISMaxEq       ....     5
   Bias factor          DIISBfac        ....   1.050
   Max. coefficient     DIISMaxC        ....  10.000
 Newton-Raphson         CNVNR           .... off
 SOSCF                  CNVSOSCF        .... on
   Start iteration      SOSCFMaxIt      ....   150
   Startup grad/error   SOSCFStart      ....  0.003300
 Level Shifting         CNVShift        .... on
   Level shift para.    LevelShift      ....    0.2500
   Turn off err/grad.   ShiftErr        ....    0.0010
 Zerner damping         CNVZerner       .... off
 Static damping         CNVDamp         .... on
   Fraction old density DampFac         ....    0.7000
   Max. Damping (<1)    DampMax         ....    0.9800
   Min. Damping (>=0)   DampMin         ....    0.0000
   Turn off err/grad.   DampErr         ....    0.1000
 Fernandez-Rico         CNVRico         .... off

SCF Procedure:
 Maximum # iterations   MaxIter         ....   125
 SCF integral mode      SCFMode         .... Conventional
 Integral Buffer length BufferLength    .... 1048576
 Integral index format  IndFormat       ....     0
 Integral value format  ValFormat       ....     0
 Integral Storage       Thresh          ....  1.000e-08 Eh

Convergence Tolerance:
 Convergence Check Mode ConvCheckMode   .... Total+1el-Energy
 Energy Change          TolE            ....  1.000e-06 Eh
 1-El. energy change                    ....  1.000e-03 Eh
 Orbital Gradient       TolG            ....  5.000e-05
 Orbital Rotation angle TolX            ....  5.000e-05
 DIIS Error             TolErr          ....  1.000e-06


Diagonalization of the overlap matrix:
Smallest eigenvalue                        ... 1.696e-01
Time for diagonalization                   ...    0.003 sec
Threshold for overlap eigenvalues          ... 1.000e-08
Number of eigenvalues below threshold      ... 0
Time for construction of square roots      ...    0.001 sec
Total time needed                          ...    0.004 sec

-------------------------------
INITIAL GUESS: EXTENDED HUECKEL
-------------------------------
EHT matrix was read from disk
EHT matrix was diagonalized
Initial density was built
                      ------------------
                      INITIAL GUESS DONE
                      ------------------

 InCore treatment chosen:
   Memory dedicated               ...    1024 MB
   Memory needed                  ...      0 MB
   Number of tiny    integrals    ...       0
   Number of small   integrals    ...       0
   Number of regular integrals    ...    7392

--------------
SCF ITERATIONS
--------------
ITER       Energy         Delta-E        Max-DP      RMS-DP      [F,P]     Damp
  0    -19.9179347303   0.000000000000 0.04357522  0.00144428  0.1078521 0.7000
  1    -19.9595150840  -0.041580353695 0.04237419  0.00136138  0.0734933 0.7000
                               ***Turning on DIIS***
  2    -19.9902958568  -0.030780772840 0.11123322  0.00349887  0.0442386 0.0000
  3    -20.0698964824  -0.079600625593 0.02112581  0.00073474  0.0210240 0.0000
  4    -20.0561032318   0.013793250597 0.01409700  0.00050283  0.0083629 0.0000
  5    -20.0729647493  -0.016861517450 0.00987701  0.00033957  0.0049129 0.0000
  6    -20.0758354630  -0.002870713726 0.00771858  0.00024113  0.0028034 0.0000
                      *** Initiating the SOSCF procedure ***
                           *** Shutting down DIIS ***
                      *** Re-Reading the Fockian *** 
                      *** Removing any level shift *** 
ITER      Energy       Delta-E        Grad      Rot      Max-DP    RMS-DP
  7    -20.07152272   0.0043127472  0.003021  0.003021  0.004626  0.000136
  8    -20.06933917   0.0021835494  0.000820  0.002270  0.002333  0.000063
  9    -20.06935395  -0.0000147880  0.000361  0.002220  0.002633  0.000067
 10    -20.06935938  -0.0000054302  0.000032  0.000080  0.000142  0.000004
                 **** Energy Check signals convergence ****
              ***Rediagonalizing the Fockian in SOSCF/NRSCF***

               *****************************************************
               *                     SUCCESS                       *
               *           SCF CONVERGED AFTER  11 CYCLES          *
               *****************************************************


----------------
TOTAL SCF ENERGY
----------------

Total Energy       :          -20.06935944 Eh            -546.11503 eV

Components:
Nuclear Repulsion  :          656.18857064 Eh           17855.79878 eV
Electronic Energy  :         -676.25793007 Eh          -18401.91381 eV

One Electron Energy:        -1262.09681208 Eh          -34343.40024 eV
Two Electron Energy:          585.83888201 Eh           15941.48643 eV


---------------
SCF CONVERGENCE
---------------

  Last Energy change         ...   -5.1654e-08  Tolerance :   1.0000e-06
  Last MAX-Density change    ...    6.4331e-05  Tolerance :   1.0000e-05
  Last RMS-Density change    ...    1.5011e-06  Tolerance :   1.0000e-06
  Last Orbital Gradient      ...    1.0813e-05  Tolerance :   5.0000e-05
  Last Orbital Rotation      ...    2.5242e-05  Tolerance :   5.0000e-05

             **** THE GBW FILE WAS UPDATED (/Users/mattyjones/GoogleDrive/Boise/Code/MorphCT/tests/output_EZ/donor_polymer/chromophores/input_orca/pair/00013-00024.gbw) ****
             **** DENSITY FILE WAS UPDATED (/Users/mattyjones/GoogleDrive/Boise/Code/MorphCT/tests/output_EZ/donor_polymer/chromophores/input_orca/pair/00013-00024.scfp.tmp) ****
             **** ENERGY FILE WAS UPDATED (/Users/mattyjones/GoogleDrive/Boise/Code/MorphCT/tests/output_EZ/donor_polymer/chromophores/input_orca/pair/00013-00024.en.tmp) ****
----------------
ORBITAL ENERGIES
----------------

  NO   OCC          E(Eh)            E(eV) 
   0   2.0000      -1.561292       -42.4849 
   1   2.0000      -1.560998       -42.4769 
   2   2.0000      -1.403074       -38.1796 
   3   2.0000      -1.392448       -37.8904 
   4   2.0000      -1.290492       -35.1161 
   5   2.0000      -1.282392       -34.8957 
   6   2.0000      -1.188583       -32.3430 
   7   2.0000      -1.187699       -32.3189 
   8   2.0000      -1.122773       -30.5522 
   9   2.0000      -1.120745       -30.4970 
  10   2.0000      -1.035220       -28.1698 
  11   2.0000      -1.031106       -28.0578 
  12   2.0000      -0.950597       -25.8671 
  13   2.0000      -0.949344       -25.8330 
  14   2.0000      -0.932031       -25.3619 
  15   2.0000      -0.898589       -24.4519 
  16   2.0000      -0.861109       -23.4320 
  17   2.0000      -0.839879       -22.8543 
  18   2.0000      -0.837053       -22.7774 
  19   2.0000      -0.822426       -22.3793 
  20   2.0000      -0.774533       -21.0761 
  21   2.0000      -0.770940       -20.9783 
  22   2.0000      -0.736207       -20.0332 
  23   2.0000      -0.727560       -19.7979 
  24   2.0000      -0.711664       -19.3654 
  25   2.0000      -0.700005       -19.0481 
  26   2.0000      -0.673889       -18.3374 
  27   2.0000      -0.667682       -18.1685 
  28   2.0000      -0.651523       -17.7288 
  29   2.0000      -0.636309       -17.3148 
  30   2.0000      -0.623014       -16.9531 
  31   2.0000      -0.616321       -16.7710 
  32   2.0000      -0.587299       -15.9812 
  33   2.0000      -0.580710       -15.8019 
  34   2.0000      -0.576908       -15.6985 
  35   2.0000      -0.575107       -15.6494 
  36   2.0000      -0.568079       -15.4582 
  37   2.0000      -0.564854       -15.3705 
  38   2.0000      -0.564334       -15.3563 
  39   2.0000      -0.561181       -15.2705 
  40   2.0000      -0.533670       -14.5219 
  41   2.0000      -0.526906       -14.3379 
  42   2.0000      -0.518370       -14.1056 
  43   2.0000      -0.517411       -14.0795 
  44   2.0000      -0.506977       -13.7955 
  45   2.0000      -0.502553       -13.6752 
  46   2.0000      -0.494064       -13.4442 
  47   2.0000      -0.493917       -13.4402 
  48   2.0000      -0.485723       -13.2172 
  49   2.0000      -0.485346       -13.2069 
  50   2.0000      -0.476371       -12.9627 
  51   2.0000      -0.474632       -12.9154 
  52   2.0000      -0.474100       -12.9009 
  53   2.0000      -0.469568       -12.7776 
  54   2.0000      -0.464133       -12.6297 
  55   2.0000      -0.458127       -12.4663 
  56   2.0000      -0.436605       -11.8806 
  57   2.0000      -0.436254       -11.8711 
  58   2.0000      -0.355138        -9.6638 
  59   2.0000      -0.353574        -9.6212 
  60   2.0000      -0.305130        -8.3030 
  61   2.0000      -0.305014        -8.2998 
  62   0.0000       0.007663         0.2085 
  63   0.0000       0.008169         0.2223 
  64   0.0000       0.066665         1.8141 
  65   0.0000       0.071428         1.9437 
  66   0.0000       0.071867         1.9556 
  67   0.0000       0.076962         2.0942 
  68   0.0000       0.086429         2.3519 
  69   0.0000       0.088766         2.4155 
  70   0.0000       0.102539         2.7902 
  71   0.0000       0.104805         2.8519 
  72   0.0000       0.107977         2.9382 
  73   0.0000       0.107997         2.9388 
  74   0.0000       0.124287         3.3820 
  75   0.0000       0.124460         3.3867 
  76   0.0000       0.141074         3.8388 
  77   0.0000       0.142596         3.8802 
  78   0.0000       0.158145         4.3033 
  79   0.0000       0.161502         4.3947 
  80   0.0000       0.164921         4.4877 
  81   0.0000       0.166838         4.5399 
  82   0.0000       0.169824         4.6212 
  83   0.0000       0.172669         4.6986 
  84   0.0000       0.203117         5.5271 
  85   0.0000       0.204961         5.5773 
  86   0.0000       0.231371         6.2959 
  87   0.0000       0.232926         6.3382 
  88   0.0000       0.235732         6.4146 
  89   0.0000       0.237518         6.4632 
  90   0.0000       0.237574         6.4647 
  91   0.0000       0.238359         6.4861 
  92   0.0000       0.239656         6.5214 
  93   0.0000       0.240027         6.5315 
  94   0.0000       0.240364         6.5406 
  95   0.0000       0.241690         6.5767 
  96   0.0000       0.242835         6.6079 
  97   0.0000       0.242889         6.6094 
  98   0.0000       0.244305         6.6479 
  99   0.0000       0.244735         6.6596 
 100   0.0000       0.248061         6.7501 
 101   0.0000       0.251691         6.8489 
 102   0.0000       0.252808         6.8793 
 103   0.0000       0.256565         6.9815 
 104   0.0000       0.267127         7.2689 
 105   0.0000       0.267248         7.2722 
 106   0.0000       0.280798         7.6409 
 107   0.0000       0.281991         7.6734 
 108   0.0000       0.307532         8.3684 
 109   0.0000       0.309192         8.4135 
 110   0.0000       0.310526         8.4498 
 111   0.0000       0.310899         8.4600 
 112   0.0000       0.339094         9.2272 
 113   0.0000       0.341542         9.2938 
 114   0.0000       0.353443         9.6177 
 115   0.0000       0.353543         9.6204 
 116   0.0000       0.418267        11.3816 
 117   0.0000       0.418608        11.3909 
 118   0.0000       0.424774        11.5587 
 119   0.0000       0.426167        11.5966 
-------
TIMINGS
-------

Total SCF time: 0 days 0 hours 0 min 0 sec 

Total time                  ....       0.195 sec
Sum of individual times     ....       0.099 sec  ( 50.7%)

Fock matrix formation       ....       0.050 sec  ( 25.5%)
Diagonalization             ....       0.026 sec  ( 13.1%)
Density matrix formation    ....       0.005 sec  (  2.6%)
Population analysis         ....       0.000 sec  (  0.0%)
Initial guess               ....       0.003 sec  (  1.5%)
Orbital Transformation      ....       0.000 sec  (  0.0%)
Orbital Orthonormalization  ....       0.000 sec  (  0.0%)
DIIS solution               ....       0.010 sec  (  5.1%)
SOSCF solution              ....       0.005 sec  (  2.8%)

-------------------------   --------------------
FINAL SINGLE POINT ENERGY       -20.069359436214
-------------------------   --------------------


                            ***************************************
                            *     ORCA property calculations      *
                            ***************************************

                                    ---------------------
                                    Active property flags
                                    ---------------------
   (+) Dipole Moment


------------------------------------------------------------------------------
                       ORCA ELECTRIC PROPERTIES CALCULATION
------------------------------------------------------------------------------

Dipole Moment Calculation                       ... on
Quadrupole Moment Calculation                   ... off
Polarizability Calculation                      ... off
GBWName                                         ... /Users/mattyjones/GoogleDrive/Boise/Code/MorphCT/tests/output_EZ/donor_polymer/chromophores/input_orca/pair/00013-00024.gbw
Electron density file                           ... /Users/mattyjones/GoogleDrive/Boise/Code/MorphCT/tests/output_EZ/donor_polymer/chromophores/input_orca/pair/00013-00024.scfp.tmp

-------------
DIPOLE MOMENT
-------------
                                X             Y             Z
Electronic contribution:   -185.73823    -114.62395     121.79861
Nuclear contribution   :    100.88892      62.14042     -65.79149
                        -----------------------------------------
Total Dipole Moment    :    -84.84930     -52.48353      56.00712
                        -----------------------------------------
Magnitude (a.u.)       :    114.41470
Magnitude (Debye)      :    290.81905


Timings for individual modules:

Sum of individual times         ...        0.267 sec (=   0.004 min)
STO integral calculation        ...        0.036 sec (=   0.001 min)  13.6 %
SCF iterations                  ...        0.231 sec (=   0.004 min)  86.4 %
                             ****ORCA TERMINATED NORMALLY****
TOTAL RUN TIME: 0 days 0 hours 0 minutes 0 seconds 603 msec

