
                                 *****************
                                 * O   R   C   A *
                                 *****************

           --- An Ab Initio, DFT and Semiempirical electronic structure package ---

                  #######################################################
                  #                        -***-                        #
                  #  Department of molecular theory and spectroscopy    #
                  #              Directorship: Frank Neese              #
                  # Max Planck Institute for Chemical Energy Conversion #
                  #                  D-45470 Muelheim/Ruhr              #
                  #                       Germany                       #
                  #                                                     #
                  #                  All rights reserved                #
                  #                        -***-                        #
                  #######################################################


                         Program Version 3.0.3 - RELEASE   -


 With contributions from (in alphabetic order):
   Ute Becker             : Parallelization
   Dmytro Bykov           : SCF Hessian
   Dmitry Ganyushin       : Spin-Orbit,Spin-Spin,Magnetic field MRCI
   Andreas Hansen         : Spin unrestricted coupled pair/coupled cluster methods
   Dimitrios Liakos       : Extrapolation schemes; parallel MDCI
   Robert Izsak           : Overlap fitted RIJCOSX, COSX-SCS-MP3
   Christian Kollmar      : KDIIS, OOCD, Brueckner-CCSD(T), CCSD density
   Simone Kossmann        : Meta GGA functionals, TD-DFT gradient, OOMP2, MP2 Hessian
   Taras Petrenko         : DFT Hessian,TD-DFT gradient, ASA and ECA modules, normal mode analysis, Resonance Raman, ABS, FL, XAS/XES, NRVS
   Christoph Reimann      : Effective Core Potentials
   Michael Roemelt        : Restricted open shell CIS
   Christoph Riplinger    : Improved optimizer, TS searches, QM/MM, DLPNO-CCSD
   Barbara Sandhoefer     : DKH picture change effects
   Igor Schapiro          : Molecular dynamics
   Kantharuban Sivalingam : CASSCF convergence, NEVPT2
   Boris Wezisla          : Elementary symmetry handling
   Frank Wennmohs         : Technical directorship


 We gratefully acknowledge several colleagues who have allowed us to
 interface, adapt or use parts of their codes:
   Stefan Grimme, W. Hujo, H. Kruse, T. Risthaus : VdW corrections, initial TS optimization,
                                                   DFT functionals, gCP
   Ed Valeev                                     : LibInt (2-el integral package), F12 methods
   Garnet Chan, S. Sharma, R. Olivares           : DMRG
   Ulf Ekstrom                                   : XCFun DFT Library
   Mihaly Kallay                                 : mrcc  (arbitrary order and MRCC methods)
   Andreas Klamt, Michael Diedenhofen            : otool_cosmo (COSMO solvation model)
   Frank Weinhold                                : gennbo (NPA and NBO analysis)
   Christopher J. Cramer and Donald G. Truhlar   : smd solvation model


 Your calculation uses the libint2 library for the computation of 2-el integrals
 For citations please refer to: http://libint.valeyev.net

 This ORCA versions uses:
   CBLAS   interface :  Fast vector & matrix operations
   LAPACKE interface :  Fast linear algebra routines
   SCALAPACK package :  Parallel linear algebra routines


leaving
================================================================================
                                        WARNINGS
                       Please study these warnings very carefully!
================================================================================
Now building the actual basis set

WARNING: Direct SCF is incompatible with Method<>HF and Method<>DFT
  ===> : conventional SCF is chosen

WARNING: The NDO methods need Guess=HUECKEL or Guess=HCORE or Guess=MOREAD
  ===> : Guess is set to Hueckel

WARNING: The NDO methods need %rel::SOCType==1
  ===> : %rel::SOCType is set to 1

WARNING: The NDO methods cannot have frozencore=1
  ===> : %method FrozenCore=0 end


INFO   : the flag for use of LIBINT has been found!

================================================================================
                                       INPUT FILE
================================================================================
NAME = /Users/mattyjones/GoogleDrive/Boise/Code/MorphCT/tests/output_EZ/donor_polymer/chromophores/input_orca/pair/00010-00011.inp
|  1> # ================================================================
|  2> # Orca input file made by Matty Jones
|  3> # ================================================================
|  4> ! ZINDO/S 
|  5> ! NOPOP
|  6> ! NOMOPRINT
|  7> * xyz 0   1
|  8>  C  -1.36577  1.00772  -2.63971
|  9>  C  -2.18872  0.13029  -1.93206
| 10>  C  -1.52060  -0.58383  -0.88903
| 11>  C  -0.16324  -0.26870  -0.77248
| 12>  S  0.13464  0.86102  -1.94953
| 13>  H  -3.30709  0.01010  -2.12170
| 14>  C  -2.26574  -1.64676  0.06662
| 15>  C  -3.48121  -2.76575  -0.35423
| 16>  C  -4.24660  -2.93552  -1.85416
| 17>  H  -4.32528  -1.91427  -2.37523
| 18>  H  -3.64279  -3.66441  -2.51150
| 19>  H  -3.02347  -3.81051  -0.14007
| 20>  H  -4.31986  -2.57604  0.42045
| 21>  H  -2.69537  -1.06267  0.98769
| 22>  H  -1.46463  -2.39217  0.45999
| 23>  C  -5.73715  -3.53179  -1.53875
| 24>  C  -6.84485  -3.70644  -2.79353
| 25>  C  -6.91620  -5.25052  -3.44632
| 26>  H  -7.91668  -5.37213  -4.01685
| 27>  H  -6.86227  -6.03280  -2.59526
| 28>  H  -6.03125  -5.40378  -4.17450
| 29>  H  -6.56100  -2.96877  -3.63292
| 30>  H  -7.89059  -3.43810  -2.38716
| 31>  H  -5.61028  -4.57710  -1.05372
| 32>  H  -6.24768  -2.83604  -0.76221
| 33>  C  0.70529  -0.46225  0.61311
| 34>  C  1.66597  0.36741  1.19334
| 35>  C  2.22109  -0.14281  2.40816
| 36>  C  1.69611  -1.38159  2.78911
| 37>  S  0.58830  -1.77490  1.61928
| 38>  H  1.97190  1.36992  0.74645
| 39>  C  3.33383  0.71373  3.20522
| 40>  C  4.72192  1.26067  2.36178
| 41>  C  4.72873  2.68363  1.42145
| 42>  H  5.58758  2.52144  0.65404
| 43>  H  3.72934  2.69547  0.84106
| 44>  H  5.02121  0.40126  1.65405
| 45>  H  5.54606  1.40229  3.15799
| 46>  H  2.84262  1.66908  3.64933
| 47>  H  3.74598  0.07960  4.09452
| 48>  C  4.95219  4.16006  2.07572
| 49>  C  5.00439  5.42256  0.93644
| 50>  C  6.53921  5.93477  0.46814
| 51>  H  7.17700  6.13516  1.41279
| 52>  H  6.44059  6.91275  -0.14418
| 53>  H  7.04256  5.11967  -0.17867
| 54>  H  4.46047  5.05632  -0.01323
| 55>  H  4.44007  6.32515  1.37618
| 56>  H  4.07813  4.39211  2.79659
| 57>  H  5.94238  4.18213  2.66929
| 58>  H  -1.64176  1.63552  -3.44798
| 59>  H  1.95251  -1.95021  3.64616
| 60> *
| 61> 
| 62>                          ****END OF INPUT****
================================================================================

                       ****************************
                       * Single Point Calculation *
                       ****************************

---------------------------------
CARTESIAN COORDINATES (ANGSTROEM)
---------------------------------
  C     -1.365770    1.007720   -2.639710
  C     -2.188720    0.130290   -1.932060
  C     -1.520600   -0.583830   -0.889030
  C     -0.163240   -0.268700   -0.772480
  S      0.134640    0.861020   -1.949530
  H     -3.307090    0.010100   -2.121700
  C     -2.265740   -1.646760    0.066620
  C     -3.481210   -2.765750   -0.354230
  C     -4.246600   -2.935520   -1.854160
  H     -4.325280   -1.914270   -2.375230
  H     -3.642790   -3.664410   -2.511500
  H     -3.023470   -3.810510   -0.140070
  H     -4.319860   -2.576040    0.420450
  H     -2.695370   -1.062670    0.987690
  H     -1.464630   -2.392170    0.459990
  C     -5.737150   -3.531790   -1.538750
  C     -6.844850   -3.706440   -2.793530
  C     -6.916200   -5.250520   -3.446320
  H     -7.916680   -5.372130   -4.016850
  H     -6.862270   -6.032800   -2.595260
  H     -6.031250   -5.403780   -4.174500
  H     -6.561000   -2.968770   -3.632920
  H     -7.890590   -3.438100   -2.387160
  H     -5.610280   -4.577100   -1.053720
  H     -6.247680   -2.836040   -0.762210
  C      0.705290   -0.462250    0.613110
  C      1.665970    0.367410    1.193340
  C      2.221090   -0.142810    2.408160
  C      1.696110   -1.381590    2.789110
  S      0.588300   -1.774900    1.619280
  H      1.971900    1.369920    0.746450
  C      3.333830    0.713730    3.205220
  C      4.721920    1.260670    2.361780
  C      4.728730    2.683630    1.421450
  H      5.587580    2.521440    0.654040
  H      3.729340    2.695470    0.841060
  H      5.021210    0.401260    1.654050
  H      5.546060    1.402290    3.157990
  H      2.842620    1.669080    3.649330
  H      3.745980    0.079600    4.094520
  C      4.952190    4.160060    2.075720
  C      5.004390    5.422560    0.936440
  C      6.539210    5.934770    0.468140
  H      7.177000    6.135160    1.412790
  H      6.440590    6.912750   -0.144180
  H      7.042560    5.119670   -0.178670
  H      4.460470    5.056320   -0.013230
  H      4.440070    6.325150    1.376180
  H      4.078130    4.392110    2.796590
  H      5.942380    4.182130    2.669290
  H     -1.641760    1.635520   -3.447980
  H      1.952510   -1.950210    3.646160

----------------------------
CARTESIAN COORDINATES (A.U.)
----------------------------
  NO LB      ZA    FRAG    MASS        X           Y           Z
   0 C     4.0000    0    12.011         -2.580931261925628          1.904314819675124         -4.988328972973267
   1 C     4.0000    0    12.011         -4.136081383836122          0.246212417988600         -3.651064274303894
   2 C     4.0000    0    12.011         -2.873517559240655         -1.103278808767244         -1.680023224840010
   3 C     4.0000    0    12.011         -0.308478894101305         -0.507769412184640         -1.459775643931489
   4 S     6.0000    0    32.060          0.254432726671157          1.627091995828876         -3.684077789863498
   5 H     1.0000    0     1.008         -6.249494400229632          0.019086233952605         -4.009431938340720
   6 C     4.0000    0    12.011         -4.281628090670737         -3.111925408296160          0.125893555041834
   7 C     4.0000    0    12.011         -6.578533514668000         -5.226510054892702         -0.669397688418925
   8 C     4.0000    0    12.011         -8.024911000309988         -5.547328860648513         -3.503854608471428
   9 H     1.0000    0     1.008         -8.173594652526912         -3.617446046381434         -4.488534205073775
  10 H     1.0000    0     1.008         -6.883875463386997         -6.924731342402374         -4.746047185343223
  11 H     1.0000    0     1.008         -5.713530274126887         -7.200820330568268         -0.264693939578350
  12 H     1.0000    0     1.008         -8.163352336881058         -4.868010110026501          0.794535353007190
  13 H     1.0000    0     1.008         -5.093511129587324         -2.008155270734096          1.866463605212681
  14 H     1.0000    0     1.008         -2.767749587525083         -4.520546165782401          0.869255124342437
  15 C     4.0000    0    12.011        -10.841642289226309         -6.674115862521737         -2.907816088571326
  16 C     4.0000    0    12.011        -12.934891927770879         -7.004156531811084         -5.279006646893034
  17 C     4.0000    0    12.011        -13.069723887426161         -9.922044860676211         -6.512600969855488
  18 H     1.0000    0     1.008        -14.960357089891696        -10.151854455822374         -7.590746421041580
  19 H     1.0000    0     1.008        -12.967810957023787        -11.400339820720127         -4.904330646320468
  20 H     1.0000    0     1.008        -11.397410745212548        -10.211664287960982         -7.888661746054265
  21 H     1.0000    0     1.008        -12.398493164657332         -5.610162254601395         -6.865223866445193
  22 H     1.0000    0     1.008        -14.911054135057690         -6.497067421034656         -4.511078637851456
  23 H     1.0000    0     1.008        -10.601892734615721         -8.649465487570961         -1.991242221835501
  24 H     1.0000    0     1.008        -11.806404172377125         -5.359338904846027         -1.440368156536117
  25 C     4.0000    0    12.011          1.332804944993319         -0.873525905405099          1.158609989968459
  26 C     4.0000    0    12.011          3.148227047328787          0.694304278864007          2.255085784653587
  27 C     4.0000    0    12.011          4.197251818791153         -0.269871789185294          4.550762886663802
  28 C     4.0000    0    12.011          3.205183393005174         -2.610826729364262          5.270654057381102
  29 S     6.0000    0    32.060          1.111725884585872         -3.354074915096830          3.059995734136005
  30 H     1.0000    0     1.008          3.726350963479316          2.588773625381401          1.410586072665518
  31 C     4.0000    0    12.011          6.300025677050686          1.348754233563615          6.056987998967075
  32 C     4.0000    0    12.011          8.923135626285436          2.382321045250504          4.463117388572534
  33 C     4.0000    0    12.011          8.936004661257440          5.071325744775089          2.686151213062363
  34 H     1.0000    0     1.008         10.558995951375707          4.764831063114401          1.235956480629855
  35 H     1.0000    0     1.008          7.047431260277881          5.093700102200716          1.589373062195808
  36 H     1.0000    0     1.008          9.488711760906728          0.758271508497241          3.125701511812446
  37 H     1.0000    0     1.008         10.480534522295297          2.649944060336432          5.967736233661973
  38 H     1.0000    0     1.008          5.371773302807228          3.154104095605283          6.896234272302841
  39 H     1.0000    0     1.008          7.078876303146330          0.150422200260132          7.737521449863244
  40 C     4.0000    0    12.011          9.358282863143483          7.861374100680441          3.922542330703020
  41 C     4.0000    0    12.011          9.456926567334172         10.247153344756022          1.769615140849217
  42 C     4.0000    0    12.011         12.357316032199188         11.215089967811828          0.884656392333895
  43 H     1.0000    0     1.008         13.562564463152823         11.593772187788307          2.669786184742605
  44 H     1.0000    0     1.008         12.170951240871874         13.063204332264132         -0.272460713988766
  45 H     1.0000    0     1.008         13.308509681708451          9.674774196052615         -0.337637368347710
  46 H     1.0000    0     1.008          8.429066728571724          9.555060045468704         -0.025001076751778
  47 H     1.0000    0     1.008          8.390516315439733         11.952801255972005          2.600603310979748
  48 H     1.0000    0     1.008          7.706548838528274          8.299885050056869          5.284789208862834
  49 H     1.0000    0     1.008         11.229470783690967          7.903080356456084          5.044227072014658
  50 H     1.0000    0     1.008         -3.102476777626554          3.090684886550886         -6.515737915237797
  51 H     1.0000    0     1.008          3.689709173742583         -3.685362803634564          6.890243840458311

--------------------------------
INTERNAL COORDINATES (ANGSTROEM)
--------------------------------
 C      0   0   0   0.000000     0.000     0.000
 C      1   0   0   1.395671     0.000     0.000
 C      2   1   0   1.429777   114.101     0.000
 C      3   2   1   1.398326   113.693     0.000
 S      1   2   3   1.658041   105.480     0.000
 H      2   1   3   1.140684   124.060   177.478
 C      3   2   1   1.611931   123.082   179.713
 C      7   3   2   1.704881   128.026    37.782
 C      8   7   3   1.692464   127.374   355.603
 H      9   8   7   1.149198   110.100   327.748
 H      9   8   7   1.152373   109.392    88.536
 H      8   7   3   1.160566   105.314   118.112
 H      8   7   3   1.157347   104.111   231.696
 H      7   3   2   1.172226   107.860   271.030
 H      7   3   2   1.162821   107.746   154.876
 C      9   8   7   1.636081   106.124   208.240
 C     16   9   8   1.682847   119.588   174.661
 C     17  16   9   1.677918   114.430    96.885
 H     18  17  16   1.158125   108.967   160.656
 H     18  17  16   1.157227   109.510    41.069
 H     18  17  16   1.156231   109.539   280.663
 H     17  16   9   1.152954   108.324   335.817
 H     17  16   9   1.153566   108.053   217.491
 H     16   9   8   1.159320   108.033   297.077
 H     16   9   8   1.160915   108.130    53.702
 C      4   3   2   1.646714   123.754   156.036
 C     26   4   3   1.395675   130.015   221.145
 C     27  26   4   1.429780   114.101   180.530
 C     28  27  26   1.398321   113.694     0.000
 S     26   4   3   1.658045   124.503    41.765
 H     27  26   4   1.139443   123.009     1.297
 C     28  27  26   1.614669   119.847   180.687
 C     32  28  27   1.713864   118.980   307.196
 C     33  32  28   1.705603   122.738    83.065
 H     34  33  32   1.163120   104.499   204.191
 H     34  33  32   1.155757   106.377   318.285
 H     33  32  28   1.152841   105.931   320.876
 H     33  32  28   1.154649   106.133   204.821
 H     32  28  27   1.162418   109.473    68.580
 H     32  28  27   1.167409   109.341   186.387
 C     34  33  32   1.630291   122.333    82.992
 C     41  34  33   1.701349   114.047   176.844
 C     42  41  34   1.684439   116.089   262.327
 H     43  42  41   1.157280   109.140   310.001
 H     43  42  41   1.158062   109.038   190.538
 H     43  42  41   1.155903   109.750    70.381
 H     42  41  34   1.154060   107.523    22.433
 H     42  41  34   1.151737   108.109   140.435
 H     41  34  33   1.156495   109.164   296.397
 H     41  34  33   1.154681   109.947    55.795
 H      1   2   3   1.060002   127.261   179.999
 H     29  28  27   1.060002   127.206   180.001

---------------------------
INTERNAL COORDINATES (A.U.)
---------------------------
 C      0   0   0   0.000000     0.000     0.000
 C      1   0   0   2.637437     0.000     0.000
 C      2   1   0   2.701888   114.101     0.000
 C      3   2   1   2.642454   113.693     0.000
 S      1   2   3   3.133243   105.480     0.000
 H      2   1   3   2.155581   124.060   177.478
 C      3   2   1   3.046108   123.082   179.713
 C      7   3   2   3.221759   128.026    37.782
 C      8   7   3   3.198293   127.374   355.603
 H      9   8   7   2.171669   110.100   327.748
 H      9   8   7   2.177669   109.392    88.536
 H      8   7   3   2.193152   105.314   118.112
 H      8   7   3   2.187069   104.111   231.696
 H      7   3   2   2.215185   107.860   271.030
 H      7   3   2   2.197414   107.746   154.876
 C      9   8   7   3.091745   106.124   208.240
 C     16   9   8   3.180120   119.588   174.661
 C     17  16   9   3.170805   114.430    96.885
 H     18  17  16   2.188539   108.967   160.656
 H     18  17  16   2.186841   109.510    41.069
 H     18  17  16   2.184961   109.539   280.663
 H     17  16   9   2.178768   108.324   335.817
 H     17  16   9   2.179924   108.053   217.491
 H     16   9   8   2.190797   108.033   297.077
 H     16   9   8   2.193811   108.130    53.702
 C      4   3   2   3.111838   123.754   156.036
 C     26   4   3   2.637443   130.015   221.145
 C     27  26   4   2.701892   114.101   180.530
 C     28  27  26   2.642445   113.694     0.000
 S     26   4   3   3.133252   124.503    41.765
 H     27  26   4   2.153235   123.009     1.297
 C     28  27  26   3.051282   119.847   180.687
 C     32  28  27   3.238733   118.980   307.196
 C     33  32  28   3.223123   122.738    83.065
 H     34  33  32   2.197977   104.499   204.191
 H     34  33  32   2.184063   106.377   318.285
 H     33  32  28   2.178553   105.931   320.876
 H     33  32  28   2.181970   106.133   204.821
 H     32  28  27   2.196651   109.473    68.580
 H     32  28  27   2.206083   109.341   186.387
 C     34  33  32   3.080804   122.333    82.992
 C     41  34  33   3.215085   114.047   176.844
 C     42  41  34   3.183129   116.089   262.327
 H     43  42  41   2.186941   109.140   310.001
 H     43  42  41   2.188419   109.038   190.538
 H     43  42  41   2.184341   109.750    70.381
 H     42  41  34   2.180857   107.523    22.433
 H     42  41  34   2.176467   108.109   140.435
 H     41  34  33   2.185460   109.164   296.397
 H     41  34  33   2.182031   109.947    55.795
 H      1   2   3   2.003113   127.261   179.999
 H     29  28  27   2.003114   127.206   180.001

----------------------------
SLATER BASIS SET DIM= 118
----------------------------
  0 C     2 shells
 l=0 nsto= 1
    2       1.625000000000        1.000000000000
 l=1 nsto= 1
    2       1.625000000000        1.000000000000
  1 C     2 shells
 l=0 nsto= 1
    2       1.625000000000        1.000000000000
 l=1 nsto= 1
    2       1.625000000000        1.000000000000
  2 C     2 shells
 l=0 nsto= 1
    2       1.625000000000        1.000000000000
 l=1 nsto= 1
    2       1.625000000000        1.000000000000
  3 C     2 shells
 l=0 nsto= 1
    2       1.625000000000        1.000000000000
 l=1 nsto= 1
    2       1.625000000000        1.000000000000
  4 S     2 shells
 l=0 nsto= 1
    3       1.925000000000        1.000000000000
 l=1 nsto= 1
    3       1.925000000000        1.000000000000
  5 H     1 shells
 l=0 nsto= 1
    1       1.200000000000        1.000000000000
  6 C     2 shells
 l=0 nsto= 1
    2       1.625000000000        1.000000000000
 l=1 nsto= 1
    2       1.625000000000        1.000000000000
  7 C     2 shells
 l=0 nsto= 1
    2       1.625000000000        1.000000000000
 l=1 nsto= 1
    2       1.625000000000        1.000000000000
  8 C     2 shells
 l=0 nsto= 1
    2       1.625000000000        1.000000000000
 l=1 nsto= 1
    2       1.625000000000        1.000000000000
  9 H     1 shells
 l=0 nsto= 1
    1       1.200000000000        1.000000000000
 10 H     1 shells
 l=0 nsto= 1
    1       1.200000000000        1.000000000000
 11 H     1 shells
 l=0 nsto= 1
    1       1.200000000000        1.000000000000
 12 H     1 shells
 l=0 nsto= 1
    1       1.200000000000        1.000000000000
 13 H     1 shells
 l=0 nsto= 1
    1       1.200000000000        1.000000000000
 14 H     1 shells
 l=0 nsto= 1
    1       1.200000000000        1.000000000000
 15 C     2 shells
 l=0 nsto= 1
    2       1.625000000000        1.000000000000
 l=1 nsto= 1
    2       1.625000000000        1.000000000000
 16 C     2 shells
 l=0 nsto= 1
    2       1.625000000000        1.000000000000
 l=1 nsto= 1
    2       1.625000000000        1.000000000000
 17 C     2 shells
 l=0 nsto= 1
    2       1.625000000000        1.000000000000
 l=1 nsto= 1
    2       1.625000000000        1.000000000000
 18 H     1 shells
 l=0 nsto= 1
    1       1.200000000000        1.000000000000
 19 H     1 shells
 l=0 nsto= 1
    1       1.200000000000        1.000000000000
 20 H     1 shells
 l=0 nsto= 1
    1       1.200000000000        1.000000000000
 21 H     1 shells
 l=0 nsto= 1
    1       1.200000000000        1.000000000000
 22 H     1 shells
 l=0 nsto= 1
    1       1.200000000000        1.000000000000
 23 H     1 shells
 l=0 nsto= 1
    1       1.200000000000        1.000000000000
 24 H     1 shells
 l=0 nsto= 1
    1       1.200000000000        1.000000000000
 25 C     2 shells
 l=0 nsto= 1
    2       1.625000000000        1.000000000000
 l=1 nsto= 1
    2       1.625000000000        1.000000000000
 26 C     2 shells
 l=0 nsto= 1
    2       1.625000000000        1.000000000000
 l=1 nsto= 1
    2       1.625000000000        1.000000000000
 27 C     2 shells
 l=0 nsto= 1
    2       1.625000000000        1.000000000000
 l=1 nsto= 1
    2       1.625000000000        1.000000000000
 28 C     2 shells
 l=0 nsto= 1
    2       1.625000000000        1.000000000000
 l=1 nsto= 1
    2       1.625000000000        1.000000000000
 29 S     2 shells
 l=0 nsto= 1
    3       1.925000000000        1.000000000000
 l=1 nsto= 1
    3       1.925000000000        1.000000000000
 30 H     1 shells
 l=0 nsto= 1
    1       1.200000000000        1.000000000000
 31 C     2 shells
 l=0 nsto= 1
    2       1.625000000000        1.000000000000
 l=1 nsto= 1
    2       1.625000000000        1.000000000000
 32 C     2 shells
 l=0 nsto= 1
    2       1.625000000000        1.000000000000
 l=1 nsto= 1
    2       1.625000000000        1.000000000000
 33 C     2 shells
 l=0 nsto= 1
    2       1.625000000000        1.000000000000
 l=1 nsto= 1
    2       1.625000000000        1.000000000000
 34 H     1 shells
 l=0 nsto= 1
    1       1.200000000000        1.000000000000
 35 H     1 shells
 l=0 nsto= 1
    1       1.200000000000        1.000000000000
 36 H     1 shells
 l=0 nsto= 1
    1       1.200000000000        1.000000000000
 37 H     1 shells
 l=0 nsto= 1
    1       1.200000000000        1.000000000000
 38 H     1 shells
 l=0 nsto= 1
    1       1.200000000000        1.000000000000
 39 H     1 shells
 l=0 nsto= 1
    1       1.200000000000        1.000000000000
 40 C     2 shells
 l=0 nsto= 1
    2       1.625000000000        1.000000000000
 l=1 nsto= 1
    2       1.625000000000        1.000000000000
 41 C     2 shells
 l=0 nsto= 1
    2       1.625000000000        1.000000000000
 l=1 nsto= 1
    2       1.625000000000        1.000000000000
 42 C     2 shells
 l=0 nsto= 1
    2       1.625000000000        1.000000000000
 l=1 nsto= 1
    2       1.625000000000        1.000000000000
 43 H     1 shells
 l=0 nsto= 1
    1       1.200000000000        1.000000000000
 44 H     1 shells
 l=0 nsto= 1
    1       1.200000000000        1.000000000000
 45 H     1 shells
 l=0 nsto= 1
    1       1.200000000000        1.000000000000
 46 H     1 shells
 l=0 nsto= 1
    1       1.200000000000        1.000000000000
 47 H     1 shells
 l=0 nsto= 1
    1       1.200000000000        1.000000000000
 48 H     1 shells
 l=0 nsto= 1
    1       1.200000000000        1.000000000000
 49 H     1 shells
 l=0 nsto= 1
    1       1.200000000000        1.000000000000
 50 H     1 shells
 l=0 nsto= 1
    1       1.200000000000        1.000000000000
 51 H     1 shells
 l=0 nsto= 1
    1       1.200000000000        1.000000000000
------------------------------------------------------------------------------
                           ORCA NDO INTEGRAL CALCULATION
------------------------------------------------------------------------------

--------------
NDO PARAMETERS
--------------

Gamma integral treatment              ... Mataga-Nishimoto
Nuclear repulsuion treatment          ... Direct (ZA*ZB/RAB)
Interaction factors:
s-s (sigma) =    1.0000
s-p (sigma) =    1.0000
s-d (sigma) =    1.0000
p-p (sigma) =    1.2670  p-p(pi) =    0.5850
p-d (sigma) =    1.0000  p-d(pi) =    1.0000
d-d (sigma) =    1.0000  d-d(pi) =    1.0000 d-d (delta) =    1.0000

fGamma parameter for Mataga-Nishimoto gamma integrals:    1.2000

--------------------------
Parameters for Element H :
--------------------------
 One-electron parameters (in eV)
  U(s)  =   -13.060000 Beta(s) =    12.000000 Neff(s) =     1.000000
 One-center electron repulsion parameters (in eV)
  G(s,s)=    12.850000
--------------------------
Parameters for Element C :
--------------------------
 One-electron parameters (in eV)
  U(s)  =   -50.870766 Beta(s) =    17.000000 Neff(s) =     2.000000
  U(p)  =   -41.599980 Beta(p) =    17.000000 Neff(p) =     2.000000 
 One-center electron repulsion parameters (in eV)
  G(s,s)=    11.110000
  G(s,p)=    11.110000 G(p,p)  =    11.110000
 Slater-Condon parameters (in eV)
 F2(p,p)=     4.5098 G1(s,p)=    6.8977
--------------------------
Parameters for Element S :
--------------------------
 One-electron parameters (in eV)
  U(s)  =   -69.509597 Beta(s) =    15.000000 Neff(s) =     2.000000
  U(p)  =   -60.725746 Beta(p) =    15.000000 Neff(p) =     4.000000 
 One-center electron repulsion parameters (in eV)
  G(s,s)=    10.090000
  G(s,p)=    10.090000 G(p,p)  =    10.090000
 Slater-Condon parameters (in eV)
 F2(p,p)=     4.5377 G1(s,p)=    3.0756

 Number of atoms                    ....   52
 Number of basis functions          ....  118

 Overlap integrals                  .... done
 One electron matrix                .... done
 Nuclear repulsion                  .... done
 Integral list                      .... done
 Electron-electron repulsion        .... done
-------------------------------------------------------------------------------
                                 ORCA SCF
-------------------------------------------------------------------------------

------------
SCF SETTINGS
------------
Hamiltonian:
 ZDO-Hamiltonian        Method          .... INDO


General Settings:
 Integral files         IntName         .... /Users/mattyjones/GoogleDrive/Boise/Code/MorphCT/tests/output_EZ/donor_polymer/chromophores/input_orca/pair/00010-00011
 Hartree-Fock type      HFTyp           .... RHF
 Total Charge           Charge          ....    0
 Multiplicity           Mult            ....    1
 Number of Electrons    NEL             ....  122
 Basis Dimension        Dim             ....  118
 Nuclear Repulsion      ENuc            ....    830.6388686151 Eh

Convergence Acceleration:
 DIIS                   CNVDIIS         .... on
   Start iteration      DIISMaxIt       ....    12
   Startup error        DIISStart       ....  0.200000
   # of expansion vecs  DIISMaxEq       ....     5
   Bias factor          DIISBfac        ....   1.050
   Max. coefficient     DIISMaxC        ....  10.000
 Newton-Raphson         CNVNR           .... off
 SOSCF                  CNVSOSCF        .... on
   Start iteration      SOSCFMaxIt      ....   150
   Startup grad/error   SOSCFStart      ....  0.003300
 Level Shifting         CNVShift        .... on
   Level shift para.    LevelShift      ....    0.2500
   Turn off err/grad.   ShiftErr        ....    0.0010
 Zerner damping         CNVZerner       .... off
 Static damping         CNVDamp         .... on
   Fraction old density DampFac         ....    0.7000
   Max. Damping (<1)    DampMax         ....    0.9800
   Min. Damping (>=0)   DampMin         ....    0.0000
   Turn off err/grad.   DampErr         ....    0.1000
 Fernandez-Rico         CNVRico         .... off

SCF Procedure:
 Maximum # iterations   MaxIter         ....   125
 SCF integral mode      SCFMode         .... Conventional
 Integral Buffer length BufferLength    .... 1048576
 Integral index format  IndFormat       ....     0
 Integral value format  ValFormat       ....     0
 Integral Storage       Thresh          ....  1.000e-08 Eh

Convergence Tolerance:
 Convergence Check Mode ConvCheckMode   .... Total+1el-Energy
 Energy Change          TolE            ....  1.000e-06 Eh
 1-El. energy change                    ....  1.000e-03 Eh
 Orbital Gradient       TolG            ....  5.000e-05
 Orbital Rotation angle TolX            ....  5.000e-05
 DIIS Error             TolErr          ....  1.000e-06


Diagonalization of the overlap matrix:
Smallest eigenvalue                        ... 1.677e-01
Time for diagonalization                   ...    0.003 sec
Threshold for overlap eigenvalues          ... 1.000e-08
Number of eigenvalues below threshold      ... 0
Time for construction of square roots      ...    0.000 sec
Total time needed                          ...    0.004 sec

-------------------------------
INITIAL GUESS: EXTENDED HUECKEL
-------------------------------
EHT matrix was read from disk
EHT matrix was diagonalized
Initial density was built
                      ------------------
                      INITIAL GUESS DONE
                      ------------------

 InCore treatment chosen:
   Memory dedicated               ...    1024 MB
   Memory needed                  ...      0 MB
   Number of tiny    integrals    ...       0
   Number of small   integrals    ...       0
   Number of regular integrals    ...    7153

--------------
SCF ITERATIONS
--------------
ITER       Energy         Delta-E        Max-DP      RMS-DP      [F,P]     Damp
  0     -6.1755549467   0.000000000000 0.03847350  0.00142487  0.0979709 0.7000
  1     -6.2151507022  -0.039595755452 0.03655503  0.00134803  0.0706132 0.7000
                               ***Turning on DIIS***
  2     -6.2447826305  -0.029631928295 0.09305627  0.00348833  0.0468725 0.0000
  3     -6.3258498898  -0.081067259323 0.01695742  0.00074823  0.0176221 0.0000
  4     -6.3047863651   0.021063524658 0.01011286  0.00051886  0.0056851 0.0000
  5     -6.3223904540  -0.017604088868 0.00687932  0.00034912  0.0034147 0.0000
  6     -6.3264299054  -0.004039451380 0.00493782  0.00025615  0.0017877 0.0000
                      *** Initiating the SOSCF procedure ***
                           *** Shutting down DIIS ***
                      *** Re-Reading the Fockian *** 
                      *** Removing any level shift *** 
ITER      Energy       Delta-E        Grad      Rot      Max-DP    RMS-DP
  7     -6.32311154   0.0033183650  0.003282  0.003282  0.003026  0.000149
  8     -6.32268398   0.0004275608  0.000937  0.002692  0.001587  0.000075
  9     -6.32270354  -0.0000195650  0.000392  0.002516  0.001834  0.000080
 10     -6.32271077  -0.0000072281  0.000037  0.000119  0.000194  0.000006
                 **** Energy Check signals convergence ****
              ***Rediagonalizing the Fockian in SOSCF/NRSCF***

               *****************************************************
               *                     SUCCESS                       *
               *           SCF CONVERGED AFTER  11 CYCLES          *
               *****************************************************


----------------
TOTAL SCF ENERGY
----------------

Total Energy       :           -6.32271087 Eh            -172.04971 eV

Components:
Nuclear Repulsion  :          830.63886862 Eh           22602.83272 eV
Electronic Energy  :         -836.96157949 Eh          -22774.88243 eV

One Electron Energy:        -1584.91587080 Eh          -43127.75342 eV
Two Electron Energy:          747.95429131 Eh           20352.87099 eV


---------------
SCF CONVERGENCE
---------------

  Last Energy change         ...   -9.7398e-08  Tolerance :   1.0000e-06
  Last MAX-Density change    ...    6.7059e-05  Tolerance :   1.0000e-05
  Last RMS-Density change    ...    2.3133e-06  Tolerance :   1.0000e-06
  Last Orbital Gradient      ...    1.9045e-05  Tolerance :   5.0000e-05
  Last Orbital Rotation      ...    4.9620e-05  Tolerance :   5.0000e-05

             **** THE GBW FILE WAS UPDATED (/Users/mattyjones/GoogleDrive/Boise/Code/MorphCT/tests/output_EZ/donor_polymer/chromophores/input_orca/pair/00010-00011.gbw) ****
             **** DENSITY FILE WAS UPDATED (/Users/mattyjones/GoogleDrive/Boise/Code/MorphCT/tests/output_EZ/donor_polymer/chromophores/input_orca/pair/00010-00011.scfp.tmp) ****
             **** ENERGY FILE WAS UPDATED (/Users/mattyjones/GoogleDrive/Boise/Code/MorphCT/tests/output_EZ/donor_polymer/chromophores/input_orca/pair/00010-00011.en.tmp) ****
----------------
ORBITAL ENERGIES
----------------

  NO   OCC          E(Eh)            E(eV) 
   0   2.0000      -1.572026       -42.7770 
   1   2.0000      -1.540489       -41.9188 
   2   2.0000      -1.404526       -38.2191 
   3   2.0000      -1.389933       -37.8220 
   4   2.0000      -1.298128       -35.3239 
   5   2.0000      -1.287049       -35.0224 
   6   2.0000      -1.212525       -32.9945 
   7   2.0000      -1.175021       -31.9739 
   8   2.0000      -1.137157       -30.9436 
   9   2.0000      -1.073353       -29.2074 
  10   2.0000      -1.041586       -28.3430 
  11   2.0000      -1.029736       -28.0206 
  12   2.0000      -0.986459       -26.8429 
  13   2.0000      -0.963468       -26.2173 
  14   2.0000      -0.903492       -24.5853 
  15   2.0000      -0.879913       -23.9437 
  16   2.0000      -0.872681       -23.7469 
  17   2.0000      -0.863796       -23.5051 
  18   2.0000      -0.836926       -22.7739 
  19   2.0000      -0.796054       -21.6617 
  20   2.0000      -0.765216       -20.8226 
  21   2.0000      -0.740651       -20.1541 
  22   2.0000      -0.723729       -19.6937 
  23   2.0000      -0.703628       -19.1467 
  24   2.0000      -0.693862       -18.8809 
  25   2.0000      -0.683079       -18.5875 
  26   2.0000      -0.666402       -18.1337 
  27   2.0000      -0.663411       -18.0523 
  28   2.0000      -0.646736       -17.5986 
  29   2.0000      -0.639776       -17.4092 
  30   2.0000      -0.633505       -17.2385 
  31   2.0000      -0.609390       -16.5823 
  32   2.0000      -0.589314       -16.0360 
  33   2.0000      -0.579591       -15.7715 
  34   2.0000      -0.574874       -15.6431 
  35   2.0000      -0.566902       -15.4262 
  36   2.0000      -0.565890       -15.3986 
  37   2.0000      -0.560324       -15.2472 
  38   2.0000      -0.551334       -15.0026 
  39   2.0000      -0.546298       -14.8655 
  40   2.0000      -0.527805       -14.3623 
  41   2.0000      -0.518760       -14.1162 
  42   2.0000      -0.514336       -13.9958 
  43   2.0000      -0.509044       -13.8518 
  44   2.0000      -0.501969       -13.6593 
  45   2.0000      -0.499226       -13.5846 
  46   2.0000      -0.492017       -13.3885 
  47   2.0000      -0.487132       -13.2555 
  48   2.0000      -0.482933       -13.1413 
  49   2.0000      -0.481071       -13.0906 
  50   2.0000      -0.476509       -12.9665 
  51   2.0000      -0.469878       -12.7860 
  52   2.0000      -0.465350       -12.6628 
  53   2.0000      -0.459478       -12.5030 
  54   2.0000      -0.455473       -12.3941 
  55   2.0000      -0.441407       -12.0113 
  56   2.0000      -0.425337       -11.5740 
  57   2.0000      -0.362500        -9.8641 
  58   2.0000      -0.356517        -9.7013 
  59   2.0000      -0.328950        -8.9512 
  60   2.0000      -0.279757        -7.6126 
  61   0.0000      -0.014307        -0.3893 
  62   0.0000       0.019581         0.5328 
  63   0.0000       0.048131         1.3097 
  64   0.0000       0.064504         1.7552 
  65   0.0000       0.069274         1.8850 
  66   0.0000       0.073493         1.9998 
  67   0.0000       0.082872         2.2551 
  68   0.0000       0.088119         2.3978 
  69   0.0000       0.090050         2.4504 
  70   0.0000       0.103506         2.8166 
  71   0.0000       0.107275         2.9191 
  72   0.0000       0.115646         3.1469 
  73   0.0000       0.123049         3.3483 
  74   0.0000       0.133338         3.6283 
  75   0.0000       0.140658         3.8275 
  76   0.0000       0.143616         3.9080 
  77   0.0000       0.152431         4.1479 
  78   0.0000       0.158666         4.3175 
  79   0.0000       0.161388         4.3916 
  80   0.0000       0.171746         4.6735 
  81   0.0000       0.173480         4.7206 
  82   0.0000       0.187184         5.0935 
  83   0.0000       0.204569         5.5666 
  84   0.0000       0.210272         5.7218 
  85   0.0000       0.232676         6.3314 
  86   0.0000       0.233374         6.3504 
  87   0.0000       0.234715         6.3869 
  88   0.0000       0.235892         6.4189 
  89   0.0000       0.238149         6.4804 
  90   0.0000       0.238512         6.4902 
  91   0.0000       0.238836         6.4991 
  92   0.0000       0.239782         6.5248 
  93   0.0000       0.240369         6.5408 
  94   0.0000       0.241413         6.5692 
  95   0.0000       0.241559         6.5731 
  96   0.0000       0.242827         6.6077 
  97   0.0000       0.243494         6.6258 
  98   0.0000       0.243982         6.6391 
  99   0.0000       0.244390         6.6502 
 100   0.0000       0.246383         6.7044 
 101   0.0000       0.257169         6.9979 
 102   0.0000       0.258849         7.0437 
 103   0.0000       0.270413         7.3583 
 104   0.0000       0.277699         7.5566 
 105   0.0000       0.286675         7.8008 
 106   0.0000       0.289953         7.8900 
 107   0.0000       0.299942         8.1618 
 108   0.0000       0.304875         8.2961 
 109   0.0000       0.326575         8.8866 
 110   0.0000       0.339943         9.2503 
 111   0.0000       0.343530         9.3479 
 112   0.0000       0.354161         9.6372 
 113   0.0000       0.358914         9.7665 
 114   0.0000       0.396165        10.7802 
 115   0.0000       0.416555        11.3350 
 116   0.0000       0.427475        11.6322 
 117   0.0000       0.463731        12.6188 
-------
TIMINGS
-------

Total SCF time: 0 days 0 hours 0 min 0 sec 

Total time                  ....       0.161 sec
Sum of individual times     ....       0.128 sec  ( 79.5%)

Fock matrix formation       ....       0.058 sec  ( 35.9%)
Diagonalization             ....       0.023 sec  ( 14.3%)
Density matrix formation    ....       0.005 sec  (  3.1%)
Population analysis         ....       0.000 sec  (  0.0%)
Initial guess               ....       0.003 sec  (  1.6%)
Orbital Transformation      ....       0.000 sec  (  0.0%)
Orbital Orthonormalization  ....       0.000 sec  (  0.0%)
DIIS solution               ....       0.028 sec  ( 17.3%)
SOSCF solution              ....       0.012 sec  (  7.3%)

-------------------------   --------------------
FINAL SINGLE POINT ENERGY        -6.322710870077
-------------------------   --------------------


                            ***************************************
                            *     ORCA property calculations      *
                            ***************************************

                                    ---------------------
                                    Active property flags
                                    ---------------------
   (+) Dipole Moment


------------------------------------------------------------------------------
                       ORCA ELECTRIC PROPERTIES CALCULATION
------------------------------------------------------------------------------

Dipole Moment Calculation                       ... on
Quadrupole Moment Calculation                   ... off
Polarizability Calculation                      ... off
GBWName                                         ... /Users/mattyjones/GoogleDrive/Boise/Code/MorphCT/tests/output_EZ/donor_polymer/chromophores/input_orca/pair/00010-00011.gbw
Electron density file                           ... /Users/mattyjones/GoogleDrive/Boise/Code/MorphCT/tests/output_EZ/donor_polymer/chromophores/input_orca/pair/00010-00011.scfp.tmp

-------------
DIPOLE MOMENT
-------------
                                X             Y             Z
Electronic contribution:     19.51024     -23.92482      -3.49024
Nuclear contribution   :    -10.24179      12.82238       1.42349
                        -----------------------------------------
Total Dipole Moment    :      9.26845     -11.10244      -2.06675
                        -----------------------------------------
Magnitude (a.u.)       :     14.60958
Magnitude (Debye)      :     37.13460


Timings for individual modules:

Sum of individual times         ...        0.241 sec (=   0.004 min)
STO integral calculation        ...        0.041 sec (=   0.001 min)  17.0 %
SCF iterations                  ...        0.200 sec (=   0.003 min)  83.0 %
                             ****ORCA TERMINATED NORMALLY****
TOTAL RUN TIME: 0 days 0 hours 0 minutes 0 seconds 667 msec

