
                                 *****************
                                 * O   R   C   A *
                                 *****************

           --- An Ab Initio, DFT and Semiempirical electronic structure package ---

                  #######################################################
                  #                        -***-                        #
                  #  Department of molecular theory and spectroscopy    #
                  #              Directorship: Frank Neese              #
                  # Max Planck Institute for Chemical Energy Conversion #
                  #                  D-45470 Muelheim/Ruhr              #
                  #                       Germany                       #
                  #                                                     #
                  #                  All rights reserved                #
                  #                        -***-                        #
                  #######################################################


                         Program Version 3.0.3 - RELEASE   -


 With contributions from (in alphabetic order):
   Ute Becker             : Parallelization
   Dmytro Bykov           : SCF Hessian
   Dmitry Ganyushin       : Spin-Orbit,Spin-Spin,Magnetic field MRCI
   Andreas Hansen         : Spin unrestricted coupled pair/coupled cluster methods
   Dimitrios Liakos       : Extrapolation schemes; parallel MDCI
   Robert Izsak           : Overlap fitted RIJCOSX, COSX-SCS-MP3
   Christian Kollmar      : KDIIS, OOCD, Brueckner-CCSD(T), CCSD density
   Simone Kossmann        : Meta GGA functionals, TD-DFT gradient, OOMP2, MP2 Hessian
   Taras Petrenko         : DFT Hessian,TD-DFT gradient, ASA and ECA modules, normal mode analysis, Resonance Raman, ABS, FL, XAS/XES, NRVS
   Christoph Reimann      : Effective Core Potentials
   Michael Roemelt        : Restricted open shell CIS
   Christoph Riplinger    : Improved optimizer, TS searches, QM/MM, DLPNO-CCSD
   Barbara Sandhoefer     : DKH picture change effects
   Igor Schapiro          : Molecular dynamics
   Kantharuban Sivalingam : CASSCF convergence, NEVPT2
   Boris Wezisla          : Elementary symmetry handling
   Frank Wennmohs         : Technical directorship


 We gratefully acknowledge several colleagues who have allowed us to
 interface, adapt or use parts of their codes:
   Stefan Grimme, W. Hujo, H. Kruse, T. Risthaus : VdW corrections, initial TS optimization,
                                                   DFT functionals, gCP
   Ed Valeev                                     : LibInt (2-el integral package), F12 methods
   Garnet Chan, S. Sharma, R. Olivares           : DMRG
   Ulf Ekstrom                                   : XCFun DFT Library
   Mihaly Kallay                                 : mrcc  (arbitrary order and MRCC methods)
   Andreas Klamt, Michael Diedenhofen            : otool_cosmo (COSMO solvation model)
   Frank Weinhold                                : gennbo (NPA and NBO analysis)
   Christopher J. Cramer and Donald G. Truhlar   : smd solvation model


 Your calculation uses the libint2 library for the computation of 2-el integrals
 For citations please refer to: http://libint.valeyev.net

 This ORCA versions uses:
   CBLAS   interface :  Fast vector & matrix operations
   LAPACKE interface :  Fast linear algebra routines
   SCALAPACK package :  Parallel linear algebra routines


leaving
================================================================================
                                        WARNINGS
                       Please study these warnings very carefully!
================================================================================
Now building the actual basis set

WARNING: Direct SCF is incompatible with Method<>HF and Method<>DFT
  ===> : conventional SCF is chosen

WARNING: The NDO methods need Guess=HUECKEL or Guess=HCORE or Guess=MOREAD
  ===> : Guess is set to Hueckel

WARNING: The NDO methods need %rel::SOCType==1
  ===> : %rel::SOCType is set to 1

WARNING: The NDO methods cannot have frozencore=1
  ===> : %method FrozenCore=0 end


INFO   : the flag for use of LIBINT has been found!

================================================================================
                                       INPUT FILE
================================================================================
NAME = /Users/mattyjones/GoogleDrive/Boise/Code/MorphCT/tests/output_EZ/donor_polymer/chromophores/input_orca/pair/00015-00029.inp
|  1> # ================================================================
|  2> # Orca input file made by Matty Jones
|  3> # ================================================================
|  4> ! ZINDO/S 
|  5> ! NOPOP
|  6> ! NOMOPRINT
|  7> * xyz 0   1
|  8>  C  16.57825  25.26965  25.88632
|  9>  C  16.57857  24.13368  26.69718
| 10>  C  16.65710  24.41537  28.09673
| 11>  C  16.71911  25.78065  28.39250
| 12>  S  16.67414  26.55652  26.92742
| 13>  H  16.93158  23.13294  26.25454
| 14>  C  16.62347  23.04546  28.97049
| 15>  C  15.27102  22.13359  28.30281
| 16>  C  14.51445  20.60052  28.46163
| 17>  H  13.38228  20.78200  28.58184
| 18>  H  14.93171  20.10669  29.41404
| 19>  H  15.48278  22.09619  27.17100
| 20>  H  14.39573  22.86774  28.49840
| 21>  H  16.42977  23.25415  30.08605
| 22>  H  17.58325  22.42274  28.82888
| 23>  C  14.77377  19.62294  27.17179
| 24>  C  13.99486  18.11395  27.15105
| 25>  C  12.49514  18.02406  26.38174
| 26>  H  11.66661  17.87655  27.17597
| 27>  H  12.49518  17.12157  25.65550
| 28>  H  12.29723  18.99659  25.78862
| 29>  H  13.84651  17.78689  28.24625
| 30>  H  14.69973  17.37064  26.62117
| 31>  H  15.90824  19.41409  27.08449
| 32>  H  14.42965  20.17761  26.21400
| 33>  C  -10.80917  -21.29890  -28.82646
| 34>  C  -12.12346  -20.99906  -28.46502
| 35>  C  -12.29563  -20.71152  -27.07508
| 36>  C  -11.11131  -20.78468  -26.33524
| 37>  S  -9.93010  -21.19550  -27.42444
| 38>  H  -12.98877  -20.95103  -29.20900
| 39>  C  -13.63863  -20.31899  -26.23717
| 40>  C  -15.17555  -21.04916  -25.91181
| 41>  C  -16.74688  -21.16154  -26.58123
| 42>  H  -17.49406  -20.94496  -25.72308
| 43>  H  -16.84076  -20.32276  -27.36938
| 44>  H  -14.87111  -22.15825  -25.76327
| 45>  H  -15.41198  -20.60250  -24.86122
| 46>  H  -13.27905  -20.07933  -25.14455
| 47>  H  -13.99091  -19.29342  -26.69053
| 48>  C  -17.10236  -22.60172  -27.24890
| 49>  C  -17.48251  -22.67647  -28.88832
| 50>  C  -19.13029  -22.88946  -29.17076
| 51>  H  -19.71497  -21.96405  -28.79963
| 52>  H  -19.49172  -23.83219  -28.60315
| 53>  H  -19.30396  -23.03525  -30.30556
| 54>  H  -17.16092  -21.68675  -29.38391
| 55>  H  -16.90752  -23.55298  -29.36327
| 56>  H  -16.21056  -23.32533  -27.09192
| 57>  H  -18.01494  -23.04113  -26.67853
| 58>  H  16.52743  25.30273  24.82806
| 59>  H  16.78175  26.22638  29.35218
| 60>  H  -10.44894  -21.54156  -29.79339
| 61>  H  -10.99325  -20.61342  -25.29585
| 62> *
| 63> 
| 64>                          ****END OF INPUT****
================================================================================

                       ****************************
                       * Single Point Calculation *
                       ****************************

---------------------------------
CARTESIAN COORDINATES (ANGSTROEM)
---------------------------------
  C     16.578250   25.269650   25.886320
  C     16.578570   24.133680   26.697180
  C     16.657100   24.415370   28.096730
  C     16.719110   25.780650   28.392500
  S     16.674140   26.556520   26.927420
  H     16.931580   23.132940   26.254540
  C     16.623470   23.045460   28.970490
  C     15.271020   22.133590   28.302810
  C     14.514450   20.600520   28.461630
  H     13.382280   20.782000   28.581840
  H     14.931710   20.106690   29.414040
  H     15.482780   22.096190   27.171000
  H     14.395730   22.867740   28.498400
  H     16.429770   23.254150   30.086050
  H     17.583250   22.422740   28.828880
  C     14.773770   19.622940   27.171790
  C     13.994860   18.113950   27.151050
  C     12.495140   18.024060   26.381740
  H     11.666610   17.876550   27.175970
  H     12.495180   17.121570   25.655500
  H     12.297230   18.996590   25.788620
  H     13.846510   17.786890   28.246250
  H     14.699730   17.370640   26.621170
  H     15.908240   19.414090   27.084490
  H     14.429650   20.177610   26.214000
  C    -10.809170  -21.298900  -28.826460
  C    -12.123460  -20.999060  -28.465020
  C    -12.295630  -20.711520  -27.075080
  C    -11.111310  -20.784680  -26.335240
  S     -9.930100  -21.195500  -27.424440
  H    -12.988770  -20.951030  -29.209000
  C    -13.638630  -20.318990  -26.237170
  C    -15.175550  -21.049160  -25.911810
  C    -16.746880  -21.161540  -26.581230
  H    -17.494060  -20.944960  -25.723080
  H    -16.840760  -20.322760  -27.369380
  H    -14.871110  -22.158250  -25.763270
  H    -15.411980  -20.602500  -24.861220
  H    -13.279050  -20.079330  -25.144550
  H    -13.990910  -19.293420  -26.690530
  C    -17.102360  -22.601720  -27.248900
  C    -17.482510  -22.676470  -28.888320
  C    -19.130290  -22.889460  -29.170760
  H    -19.714970  -21.964050  -28.799630
  H    -19.491720  -23.832190  -28.603150
  H    -19.303960  -23.035250  -30.305560
  H    -17.160920  -21.686750  -29.383910
  H    -16.907520  -23.552980  -29.363270
  H    -16.210560  -23.325330  -27.091920
  H    -18.014940  -23.041130  -26.678530
  H     16.527430   25.302730   24.828060
  H     16.781750   26.226380   29.352180
  H    -10.448940  -21.541560  -29.793390
  H    -10.993250  -20.613420  -25.295850

----------------------------
CARTESIAN COORDINATES (A.U.)
----------------------------
  NO LB      ZA    FRAG    MASS        X           Y           Z
   0 C     4.0000    0    12.011         31.328352279679990         47.752718000043153         48.918055415048379
   1 C     4.0000    0    12.011         31.328956992042844         45.606045803692631         50.450358747999758
   2 C     4.0000    0    12.011         31.477357185339681         46.138362758356912         53.095124958729251
   3 C     4.0000    0    12.011         31.594539102904140         48.718368054476919         53.654049257359134
   4 S     6.0000    0    32.060         31.509558118661701         50.184549870002400         50.885449293073790
   5 H     1.0000    0     1.008         31.996049214578388         43.714921272432285         49.613890372080853
   6 C     4.0000    0    12.011         31.413805695455910         43.549608030236847         54.746292065504285
   7 C     4.0000    0    12.011         28.858045585634112         41.826423460498077         53.484559720407745
   8 C     4.0000    0    12.011         27.428335484493310         38.929341016367424         53.784686024997114
   9 H     1.0000    0     1.008         25.288844247451689         39.272288515151452         54.011850003555786
  10 H     1.0000    0     1.008         28.216842611133295         37.996137559653093         55.584480092205055
  11 H     1.0000    0     1.008         29.258213991753276         41.755747703089419         51.345748784774329
  12 H     1.0000    0     1.008         27.203987197874181         43.213765901716364         53.854171254941399
  13 H     1.0000    0     1.008         31.047765743315367         43.943974977124874         56.854394951461472
  14 H     1.0000    0     1.008         33.227527044270850         42.372837772121407         54.478687947679695
  15 C     4.0000    0    12.011         27.918379265541773         37.081982542368685         51.347241668420132
  16 C     4.0000    0    12.011         26.446452682569166         34.230404703542852         51.308048748402605
  17 C     4.0000    0    12.011         23.612392605004786         34.060537221364676         49.854263536315642
  18 H     1.0000    0     1.008         22.046697811267016         33.781783719349953         51.355140723659915
  19 H     1.0000    0     1.008         23.612468194050145         32.355078282762079         48.481868828816673
  20 H     1.0000    0     1.008         23.238396905840435         35.898352578387112         48.733429171764271
  21 H     1.0000    0     1.008         26.166111810601951         33.612350874182575         53.377676810273151
  22 H     1.0000    0     1.008         27.778463942586242         32.825752370937856         50.306720664560409
  23 H     1.0000    0     1.008         30.062216872691412         36.687313239299236         51.182268576928799
  24 H     1.0000    0     1.008         27.268086708336789         38.130156937070787         49.537280874611689
  25 C     4.0000    0    12.011        -20.426371034997576        -40.249087953775344        -54.474114810435609
  26 C     4.0000    0    12.011        -22.910019195548937        -39.682472469780400        -53.791092196591109
  27 C     4.0000    0    12.011        -23.235373344026158        -39.139100617232685        -51.164486254008601
  28 C     4.0000    0    12.011        -20.997332889100541        -39.277352981190361        -49.766391271088303
  29 S     6.0000    0    32.060        -18.765169482451419        -40.053690271527891        -51.824680976155335
  30 H     1.0000    0     1.008        -24.545218116492336        -39.591708923568163        -55.197010645705838
  31 C     4.0000    0    12.011        -25.773275541882398        -38.397326417884571        -49.581065829134644
  32 C     4.0000    0    12.011        -28.677633431628649        -39.777147749089856        -48.966224534202027
  33 C     4.0000    0    12.011        -31.647016797643133        -39.989515172019921        -50.231245002771594
  34 H     1.0000    0     1.008        -33.058982370386417        -39.580238285935259        -48.609576520947073
  35 H     1.0000    0     1.008        -31.824424287095656        -38.404450685409451        -51.720632655221628
  36 H     1.0000    0     1.008        -28.102325207417664        -41.873024106960571        -48.685524614269362
  37 H     1.0000    0     1.008        -29.124421381471652        -38.933082674112583        -46.980897155165700
  38 H     1.0000    0     1.008        -25.093767818646995        -37.944434652629006        -47.516313260689607
  39 H     1.0000    0     1.008        -26.438988264340178        -36.459279986718954        -50.437792069209181
  40 C     4.0000    0    12.011        -32.318776643729457        -42.711060955570630        -51.492958450606793
  41 C     4.0000    0    12.011        -33.037156033539624        -42.852317984081246        -54.591013269079973
  42 C     4.0000    0    12.011        -36.151008962492376        -43.254810753345133        -55.124747518344691
  43 H     1.0000    0     1.008        -37.255894038473464        -41.506039291753069        -54.423413458262495
  44 H     1.0000    0     1.008        -36.834012679075542        -45.036312271576719        -54.052120067469652
  45 H     1.0000    0     1.008        -36.479197700170488        -43.530313926409512        -57.269208735118525
  46 H     1.0000    0     1.008        -32.429439006131886        -40.982018234816707        -55.527542643790007
  47 H     1.0000    0     1.008        -31.950582403796243        -44.508681837724566        -55.488538696385874
  48 H     1.0000    0     1.008        -30.633518877498489        -44.078485683337391        -51.196309242103830
  49 H     1.0000    0     1.008        -34.043302919023311        -43.541425516076970        -50.415115355602126
  50 H     1.0000    0     1.008         31.232316397554111         47.815230140553275         46.918233836564873
  51 H     1.0000    0     1.008         31.712911547932961         49.560675684149636         55.467581633560684
  52 H     1.0000    0     1.008        -19.745634989775123        -40.707648897432676        -56.301347701108078
  53 H     1.0000    0     1.008        -20.774231821729799        -38.953718483495010        -47.802228824751900

--------------------------------
INTERNAL COORDINATES (ANGSTROEM)
--------------------------------
 C      0   0   0   0.000000     0.000     0.000
 C      1   0   0   1.395680     0.000     0.000
 C      2   1   0   1.429775   114.101     0.000
 C      3   2   1   1.398326   113.693     0.000
 S      1   2   3   1.658047   105.480     0.000
 H      2   1   3   1.149794   119.000   203.986
 C      3   2   1   1.625190   111.043   178.910
 C      7   3   2   1.762505   104.378   311.924
 C      8   7   3   1.716952   139.911   175.103
 H      9   8   7   1.152907   107.567   130.867
 H      9   8   7   1.151112   107.449    12.813
 H      8   7   3   1.152057   104.354    52.891
 H      8   7   3   1.159036   100.827   299.895
 H      7   3   2   1.151323   111.816   193.792
 H      7   3   2   1.152827   111.842    68.712
 C      9   8   7   1.639084   112.957   251.630
 C     16   9   8   1.698288   117.839   184.043
 C     17  16   9   1.687921   117.412    92.545
 H     18  17  16   1.157161   109.277   250.386
 H     18  17  16   1.158410   109.099   130.901
 H     18  17  16   1.156190   109.944    10.813
 H     17  16   9   1.152579   107.431   331.124
 H     17  16   9   1.153310   107.335   213.548
 H     16   9   8   1.156833   108.797    62.420
 H     16   9   8   1.159068   108.535   304.692
 C     20  18  17  70.622300   155.159   198.324
 C     26  20  18   1.395672    89.661   320.550
 C     27  26  20   1.429774   114.102   333.545
 C     28  27  26   1.398331   113.693     0.000
 S     26  20  18   1.658046    30.547   198.196
 H     27  26  20   1.142180   123.626   151.665
 C     28  27  26   1.630896   130.318   180.023
 C     32  28  27   1.732377   136.520    59.683
 C     33  32  28   1.711675   140.233   272.412
 H     34  33  32   1.158277   106.867   228.000
 H     34  33  32   1.154793   107.089   344.117
 H     33  32  28   1.159667   101.201    39.411
 H     33  32  28   1.165823   100.818   150.118
 H     32  28  27   1.174969   105.953   184.977
 H     32  28  27   1.175343   104.990   296.685
 C     34  33  32   1.626735   114.787   106.782
 C     41  34  33   1.684577   119.211   240.842
 C     42  41  34   1.685324   112.914   255.278
 H     43  42  41   1.155842   109.852    65.005
 H     43  42  41   1.158254   109.016   304.820
 H     43  42  41   1.157232   109.086   185.484
 H     42  41  34   1.152638   108.504    14.981
 H     42  41  34   1.150852   108.825   134.302
 H     41  34  33   1.159121   109.206     2.964
 H     41  34  33   1.162414   107.748   119.503
 H      1   2   3   1.059996   127.260   180.000
 H      4   3   2   1.059993   127.206   180.000
 H     26  20  18   1.060001   135.735   110.020
 H     29  28  27   1.060000   127.206   180.000

---------------------------
INTERNAL COORDINATES (A.U.)
---------------------------
 C      0   0   0   0.000000     0.000     0.000
 C      1   0   0   2.637452     0.000     0.000
 C      2   1   0   2.701883   114.101     0.000
 C      3   2   1   2.642453   113.693     0.000
 S      1   2   3   3.133254   105.480     0.000
 H      2   1   3   2.172796   119.000   203.986
 C      3   2   1   3.071163   111.043   178.910
 C      7   3   2   3.330652   104.378   311.924
 C      8   7   3   3.244570   139.911   175.103
 H      9   8   7   2.178678   107.567   130.867
 H      9   8   7   2.175286   107.449    12.813
 H      8   7   3   2.177072   104.354    52.891
 H      8   7   3   2.190260   100.827   299.895
 H      7   3   2   2.175686   111.816   193.792
 H      7   3   2   2.178528   111.842    68.712
 C      9   8   7   3.097420   112.957   251.630
 C     16   9   8   3.209299   117.839   184.043
 C     17  16   9   3.189709   117.412    92.545
 H     18  17  16   2.186718   109.277   250.386
 H     18  17  16   2.189077   109.099   130.901
 H     18  17  16   2.184882   109.944    10.813
 H     17  16   9   2.178059   107.431   331.124
 H     17  16   9   2.179440   107.335   213.548
 H     16   9   8   2.186097   108.797    62.420
 H     16   9   8   2.190321   108.535   304.692
 C     20  18  17 133.456805   155.159   198.324
 C     26  20  18   2.637438    89.661   320.550
 C     27  26  20   2.701882   114.102   333.545
 C     28  27  26   2.642463   113.693     0.000
 S     26  20  18   3.133252    30.547   198.196
 H     27  26  20   2.158407   123.626   151.665
 C     28  27  26   3.081947   130.318   180.023
 C     32  28  27   3.273718   136.520    59.683
 C     33  32  28   3.234596   140.233   272.412
 H     34  33  32   2.188827   106.867   228.000
 H     34  33  32   2.182242   107.089   344.117
 H     33  32  28   2.191454   101.201    39.411
 H     33  32  28   2.203086   100.818   150.118
 H     32  28  27   2.220370   105.953   184.977
 H     32  28  27   2.221076   104.990   296.685
 C     34  33  32   3.074084   114.787   106.782
 C     41  34  33   3.183389   119.211   240.842
 C     42  41  34   3.184800   112.914   255.278
 H     43  42  41   2.184226   109.852    65.005
 H     43  42  41   2.188783   109.016   304.820
 H     43  42  41   2.186852   109.086   185.484
 H     42  41  34   2.178171   108.504    14.981
 H     42  41  34   2.174795   108.825   134.302
 H     41  34  33   2.190421   109.206     2.964
 H     41  34  33   2.196643   107.748   119.503
 H      1   2   3   2.003102   127.260   180.000
 H      4   3   2   2.003096   127.206   180.000
 H     26  20  18   2.003113   135.735   110.020
 H     29  28  27   2.003109   127.206   180.000

----------------------------
SLATER BASIS SET DIM= 120
----------------------------
  0 C     2 shells
 l=0 nsto= 1
    2       1.625000000000        1.000000000000
 l=1 nsto= 1
    2       1.625000000000        1.000000000000
  1 C     2 shells
 l=0 nsto= 1
    2       1.625000000000        1.000000000000
 l=1 nsto= 1
    2       1.625000000000        1.000000000000
  2 C     2 shells
 l=0 nsto= 1
    2       1.625000000000        1.000000000000
 l=1 nsto= 1
    2       1.625000000000        1.000000000000
  3 C     2 shells
 l=0 nsto= 1
    2       1.625000000000        1.000000000000
 l=1 nsto= 1
    2       1.625000000000        1.000000000000
  4 S     2 shells
 l=0 nsto= 1
    3       1.925000000000        1.000000000000
 l=1 nsto= 1
    3       1.925000000000        1.000000000000
  5 H     1 shells
 l=0 nsto= 1
    1       1.200000000000        1.000000000000
  6 C     2 shells
 l=0 nsto= 1
    2       1.625000000000        1.000000000000
 l=1 nsto= 1
    2       1.625000000000        1.000000000000
  7 C     2 shells
 l=0 nsto= 1
    2       1.625000000000        1.000000000000
 l=1 nsto= 1
    2       1.625000000000        1.000000000000
  8 C     2 shells
 l=0 nsto= 1
    2       1.625000000000        1.000000000000
 l=1 nsto= 1
    2       1.625000000000        1.000000000000
  9 H     1 shells
 l=0 nsto= 1
    1       1.200000000000        1.000000000000
 10 H     1 shells
 l=0 nsto= 1
    1       1.200000000000        1.000000000000
 11 H     1 shells
 l=0 nsto= 1
    1       1.200000000000        1.000000000000
 12 H     1 shells
 l=0 nsto= 1
    1       1.200000000000        1.000000000000
 13 H     1 shells
 l=0 nsto= 1
    1       1.200000000000        1.000000000000
 14 H     1 shells
 l=0 nsto= 1
    1       1.200000000000        1.000000000000
 15 C     2 shells
 l=0 nsto= 1
    2       1.625000000000        1.000000000000
 l=1 nsto= 1
    2       1.625000000000        1.000000000000
 16 C     2 shells
 l=0 nsto= 1
    2       1.625000000000        1.000000000000
 l=1 nsto= 1
    2       1.625000000000        1.000000000000
 17 C     2 shells
 l=0 nsto= 1
    2       1.625000000000        1.000000000000
 l=1 nsto= 1
    2       1.625000000000        1.000000000000
 18 H     1 shells
 l=0 nsto= 1
    1       1.200000000000        1.000000000000
 19 H     1 shells
 l=0 nsto= 1
    1       1.200000000000        1.000000000000
 20 H     1 shells
 l=0 nsto= 1
    1       1.200000000000        1.000000000000
 21 H     1 shells
 l=0 nsto= 1
    1       1.200000000000        1.000000000000
 22 H     1 shells
 l=0 nsto= 1
    1       1.200000000000        1.000000000000
 23 H     1 shells
 l=0 nsto= 1
    1       1.200000000000        1.000000000000
 24 H     1 shells
 l=0 nsto= 1
    1       1.200000000000        1.000000000000
 25 C     2 shells
 l=0 nsto= 1
    2       1.625000000000        1.000000000000
 l=1 nsto= 1
    2       1.625000000000        1.000000000000
 26 C     2 shells
 l=0 nsto= 1
    2       1.625000000000        1.000000000000
 l=1 nsto= 1
    2       1.625000000000        1.000000000000
 27 C     2 shells
 l=0 nsto= 1
    2       1.625000000000        1.000000000000
 l=1 nsto= 1
    2       1.625000000000        1.000000000000
 28 C     2 shells
 l=0 nsto= 1
    2       1.625000000000        1.000000000000
 l=1 nsto= 1
    2       1.625000000000        1.000000000000
 29 S     2 shells
 l=0 nsto= 1
    3       1.925000000000        1.000000000000
 l=1 nsto= 1
    3       1.925000000000        1.000000000000
 30 H     1 shells
 l=0 nsto= 1
    1       1.200000000000        1.000000000000
 31 C     2 shells
 l=0 nsto= 1
    2       1.625000000000        1.000000000000
 l=1 nsto= 1
    2       1.625000000000        1.000000000000
 32 C     2 shells
 l=0 nsto= 1
    2       1.625000000000        1.000000000000
 l=1 nsto= 1
    2       1.625000000000        1.000000000000
 33 C     2 shells
 l=0 nsto= 1
    2       1.625000000000        1.000000000000
 l=1 nsto= 1
    2       1.625000000000        1.000000000000
 34 H     1 shells
 l=0 nsto= 1
    1       1.200000000000        1.000000000000
 35 H     1 shells
 l=0 nsto= 1
    1       1.200000000000        1.000000000000
 36 H     1 shells
 l=0 nsto= 1
    1       1.200000000000        1.000000000000
 37 H     1 shells
 l=0 nsto= 1
    1       1.200000000000        1.000000000000
 38 H     1 shells
 l=0 nsto= 1
    1       1.200000000000        1.000000000000
 39 H     1 shells
 l=0 nsto= 1
    1       1.200000000000        1.000000000000
 40 C     2 shells
 l=0 nsto= 1
    2       1.625000000000        1.000000000000
 l=1 nsto= 1
    2       1.625000000000        1.000000000000
 41 C     2 shells
 l=0 nsto= 1
    2       1.625000000000        1.000000000000
 l=1 nsto= 1
    2       1.625000000000        1.000000000000
 42 C     2 shells
 l=0 nsto= 1
    2       1.625000000000        1.000000000000
 l=1 nsto= 1
    2       1.625000000000        1.000000000000
 43 H     1 shells
 l=0 nsto= 1
    1       1.200000000000        1.000000000000
 44 H     1 shells
 l=0 nsto= 1
    1       1.200000000000        1.000000000000
 45 H     1 shells
 l=0 nsto= 1
    1       1.200000000000        1.000000000000
 46 H     1 shells
 l=0 nsto= 1
    1       1.200000000000        1.000000000000
 47 H     1 shells
 l=0 nsto= 1
    1       1.200000000000        1.000000000000
 48 H     1 shells
 l=0 nsto= 1
    1       1.200000000000        1.000000000000
 49 H     1 shells
 l=0 nsto= 1
    1       1.200000000000        1.000000000000
 50 H     1 shells
 l=0 nsto= 1
    1       1.200000000000        1.000000000000
 51 H     1 shells
 l=0 nsto= 1
    1       1.200000000000        1.000000000000
 52 H     1 shells
 l=0 nsto= 1
    1       1.200000000000        1.000000000000
 53 H     1 shells
 l=0 nsto= 1
    1       1.200000000000        1.000000000000
------------------------------------------------------------------------------
                           ORCA NDO INTEGRAL CALCULATION
------------------------------------------------------------------------------

--------------
NDO PARAMETERS
--------------

Gamma integral treatment              ... Mataga-Nishimoto
Nuclear repulsuion treatment          ... Direct (ZA*ZB/RAB)
Interaction factors:
s-s (sigma) =    1.0000
s-p (sigma) =    1.0000
s-d (sigma) =    1.0000
p-p (sigma) =    1.2670  p-p(pi) =    0.5850
p-d (sigma) =    1.0000  p-d(pi) =    1.0000
d-d (sigma) =    1.0000  d-d(pi) =    1.0000 d-d (delta) =    1.0000

fGamma parameter for Mataga-Nishimoto gamma integrals:    1.2000

--------------------------
Parameters for Element H :
--------------------------
 One-electron parameters (in eV)
  U(s)  =   -13.060000 Beta(s) =    12.000000 Neff(s) =     1.000000
 One-center electron repulsion parameters (in eV)
  G(s,s)=    12.850000
--------------------------
Parameters for Element C :
--------------------------
 One-electron parameters (in eV)
  U(s)  =   -50.870766 Beta(s) =    17.000000 Neff(s) =     2.000000
  U(p)  =   -41.599980 Beta(p) =    17.000000 Neff(p) =     2.000000 
 One-center electron repulsion parameters (in eV)
  G(s,s)=    11.110000
  G(s,p)=    11.110000 G(p,p)  =    11.110000
 Slater-Condon parameters (in eV)
 F2(p,p)=     4.5098 G1(s,p)=    6.8977
--------------------------
Parameters for Element S :
--------------------------
 One-electron parameters (in eV)
  U(s)  =   -69.509597 Beta(s) =    15.000000 Neff(s) =     2.000000
  U(p)  =   -60.725746 Beta(p) =    15.000000 Neff(p) =     4.000000 
 One-center electron repulsion parameters (in eV)
  G(s,s)=    10.090000
  G(s,p)=    10.090000 G(p,p)  =    10.090000
 Slater-Condon parameters (in eV)
 F2(p,p)=     4.5377 G1(s,p)=    3.0756

 Number of atoms                    ....   54
 Number of basis functions          ....  120

 Overlap integrals                  .... done
 One electron matrix                .... done
 Nuclear repulsion                  .... done
 Integral list                      .... done
 Electron-electron repulsion        .... done
-------------------------------------------------------------------------------
                                 ORCA SCF
-------------------------------------------------------------------------------

------------
SCF SETTINGS
------------
Hamiltonian:
 ZDO-Hamiltonian        Method          .... INDO


General Settings:
 Integral files         IntName         .... /Users/mattyjones/GoogleDrive/Boise/Code/MorphCT/tests/output_EZ/donor_polymer/chromophores/input_orca/pair/00015-00029
 Hartree-Fock type      HFTyp           .... RHF
 Total Charge           Charge          ....    0
 Multiplicity           Mult            ....    1
 Number of Electrons    NEL             ....  124
 Basis Dimension        Dim             ....  120
 Nuclear Repulsion      ENuc            ....    608.6115292699 Eh

Convergence Acceleration:
 DIIS                   CNVDIIS         .... on
   Start iteration      DIISMaxIt       ....    12
   Startup error        DIISStart       ....  0.200000
   # of expansion vecs  DIISMaxEq       ....     5
   Bias factor          DIISBfac        ....   1.050
   Max. coefficient     DIISMaxC        ....  10.000
 Newton-Raphson         CNVNR           .... off
 SOSCF                  CNVSOSCF        .... on
   Start iteration      SOSCFMaxIt      ....   150
   Startup grad/error   SOSCFStart      ....  0.003300
 Level Shifting         CNVShift        .... on
   Level shift para.    LevelShift      ....    0.2500
   Turn off err/grad.   ShiftErr        ....    0.0010
 Zerner damping         CNVZerner       .... off
 Static damping         CNVDamp         .... on
   Fraction old density DampFac         ....    0.7000
   Max. Damping (<1)    DampMax         ....    0.9800
   Min. Damping (>=0)   DampMin         ....    0.0000
   Turn off err/grad.   DampErr         ....    0.1000
 Fernandez-Rico         CNVRico         .... off

SCF Procedure:
 Maximum # iterations   MaxIter         ....   125
 SCF integral mode      SCFMode         .... Conventional
 Integral Buffer length BufferLength    .... 1048576
 Integral index format  IndFormat       ....     0
 Integral value format  ValFormat       ....     0
 Integral Storage       Thresh          ....  1.000e-08 Eh

Convergence Tolerance:
 Convergence Check Mode ConvCheckMode   .... Total+1el-Energy
 Energy Change          TolE            ....  1.000e-06 Eh
 1-El. energy change                    ....  1.000e-03 Eh
 Orbital Gradient       TolG            ....  5.000e-05
 Orbital Rotation angle TolX            ....  5.000e-05
 DIIS Error             TolErr          ....  1.000e-06


Diagonalization of the overlap matrix:
Smallest eigenvalue                        ... 1.693e-01
Time for diagonalization                   ...    0.003 sec
Threshold for overlap eigenvalues          ... 1.000e-08
Number of eigenvalues below threshold      ... 0
Time for construction of square roots      ...    0.001 sec
Total time needed                          ...    0.004 sec

-------------------------------
INITIAL GUESS: EXTENDED HUECKEL
-------------------------------
EHT matrix was read from disk
EHT matrix was diagonalized
Initial density was built
                      ------------------
                      INITIAL GUESS DONE
                      ------------------

 InCore treatment chosen:
   Memory dedicated               ...    1024 MB
   Memory needed                  ...      0 MB
   Number of tiny    integrals    ...       0
   Number of small   integrals    ...       0
   Number of regular integrals    ...    7392

--------------
SCF ITERATIONS
--------------
ITER       Energy         Delta-E        Max-DP      RMS-DP      [F,P]     Damp
  0    -20.2228104733   0.000000000000 0.04585832  0.00144321  0.0931423 0.7000
  1    -20.2646743629  -0.041863889574 0.04551480  0.00136353  0.0714797 0.7000
                               ***Turning on DIIS***
  2    -20.2956698146  -0.030995451749 0.12238154  0.00351472  0.0520495 0.0000
  3    -20.3762581293  -0.080588314657 0.02476033  0.00075266  0.0172741 0.0000
  4    -20.3610422326   0.015215896700 0.01719056  0.00051556  0.0092294 0.0000
  5    -20.3786721461  -0.017629913561 0.01210204  0.00034800  0.0055217 0.0000
  6    -20.3814041361  -0.002731989992 0.00861189  0.00024677  0.0032117 0.0000
                      *** Initiating the SOSCF procedure ***
                           *** Shutting down DIIS ***
                      *** Re-Reading the Fockian *** 
                      *** Removing any level shift *** 
ITER      Energy       Delta-E        Grad      Rot      Max-DP    RMS-DP
  7    -20.37733819   0.0040659501  0.003036  0.003036  0.005247  0.000140
  8    -20.37532034   0.0020178443  0.000861  0.002430  0.002680  0.000065
  9    -20.37533592  -0.0000155735  0.000377  0.002384  0.003074  0.000070
 10    -20.37534169  -0.0000057780  0.000043  0.000111  0.000248  0.000005
                 **** Energy Check signals convergence ****
              ***Rediagonalizing the Fockian in SOSCF/NRSCF***

               *****************************************************
               *                     SUCCESS                       *
               *           SCF CONVERGED AFTER  11 CYCLES          *
               *****************************************************


----------------
TOTAL SCF ENERGY
----------------

Total Energy       :          -20.37534176 Eh            -554.44124 eV

Components:
Nuclear Repulsion  :          608.61152927 Eh           16561.16166 eV
Electronic Energy  :         -628.98687103 Eh          -17115.60290 eV

One Electron Energy:        -1167.74795669 Eh          -31776.03736 eV
Two Electron Energy:          538.76108566 Eh           14660.43446 eV


---------------
SCF CONVERGENCE
---------------

  Last Energy change         ...   -6.5983e-08  Tolerance :   1.0000e-06
  Last MAX-Density change    ...    1.1627e-04  Tolerance :   1.0000e-05
  Last RMS-Density change    ...    1.8472e-06  Tolerance :   1.0000e-06
  Last Orbital Gradient      ...    1.7591e-05  Tolerance :   5.0000e-05
  Last Orbital Rotation      ...    3.6797e-05  Tolerance :   5.0000e-05

             **** THE GBW FILE WAS UPDATED (/Users/mattyjones/GoogleDrive/Boise/Code/MorphCT/tests/output_EZ/donor_polymer/chromophores/input_orca/pair/00015-00029.gbw) ****
             **** DENSITY FILE WAS UPDATED (/Users/mattyjones/GoogleDrive/Boise/Code/MorphCT/tests/output_EZ/donor_polymer/chromophores/input_orca/pair/00015-00029.scfp.tmp) ****
             **** ENERGY FILE WAS UPDATED (/Users/mattyjones/GoogleDrive/Boise/Code/MorphCT/tests/output_EZ/donor_polymer/chromophores/input_orca/pair/00015-00029.en.tmp) ****
----------------
ORBITAL ENERGIES
----------------

  NO   OCC          E(Eh)            E(eV) 
   0   2.0000      -1.565657       -42.6037 
   1   2.0000      -1.555422       -42.3252 
   2   2.0000      -1.393755       -37.9260 
   3   2.0000      -1.388874       -37.7932 
   4   2.0000      -1.290045       -35.1039 
   5   2.0000      -1.284051       -34.9408 
   6   2.0000      -1.196540       -32.5595 
   7   2.0000      -1.189661       -32.3723 
   8   2.0000      -1.121199       -30.5094 
   9   2.0000      -1.105205       -30.0742 
  10   2.0000      -1.038844       -28.2684 
  11   2.0000      -1.028551       -27.9883 
  12   2.0000      -0.973240       -26.4832 
  13   2.0000      -0.947409       -25.7803 
  14   2.0000      -0.900138       -24.4940 
  15   2.0000      -0.887548       -24.1514 
  16   2.0000      -0.867385       -23.6028 
  17   2.0000      -0.866382       -23.5755 
  18   2.0000      -0.837977       -22.8025 
  19   2.0000      -0.831775       -22.6338 
  20   2.0000      -0.775636       -21.1061 
  21   2.0000      -0.774137       -21.0653 
  22   2.0000      -0.728380       -19.8202 
  23   2.0000      -0.723666       -19.6920 
  24   2.0000      -0.696784       -18.9605 
  25   2.0000      -0.689585       -18.7646 
  26   2.0000      -0.666665       -18.1409 
  27   2.0000      -0.664990       -18.0953 
  28   2.0000      -0.660176       -17.9643 
  29   2.0000      -0.644205       -17.5297 
  30   2.0000      -0.614310       -16.7162 
  31   2.0000      -0.606724       -16.5098 
  32   2.0000      -0.596655       -16.2358 
  33   2.0000      -0.584788       -15.9129 
  34   2.0000      -0.577397       -15.7118 
  35   2.0000      -0.575518       -15.6606 
  36   2.0000      -0.572362       -15.5747 
  37   2.0000      -0.568221       -15.4621 
  38   2.0000      -0.559188       -15.2163 
  39   2.0000      -0.544843       -14.8259 
  40   2.0000      -0.541903       -14.7459 
  41   2.0000      -0.527301       -14.3486 
  42   2.0000      -0.514704       -14.0058 
  43   2.0000      -0.510775       -13.8989 
  44   2.0000      -0.506818       -13.7912 
  45   2.0000      -0.501641       -13.6503 
  46   2.0000      -0.495560       -13.4849 
  47   2.0000      -0.492080       -13.3902 
  48   2.0000      -0.485008       -13.1977 
  49   2.0000      -0.484587       -13.1863 
  50   2.0000      -0.479750       -13.0547 
  51   2.0000      -0.474845       -12.9212 
  52   2.0000      -0.467934       -12.7331 
  53   2.0000      -0.459655       -12.5079 
  54   2.0000      -0.450578       -12.2608 
  55   2.0000      -0.441356       -12.0099 
  56   2.0000      -0.438349       -11.9281 
  57   2.0000      -0.430510       -11.7148 
  58   2.0000      -0.357439        -9.7264 
  59   2.0000      -0.347526        -9.4567 
  60   2.0000      -0.305497        -8.3130 
  61   2.0000      -0.305215        -8.3053 
  62   0.0000       0.006139         0.1671 
  63   0.0000       0.006793         0.1849 
  64   0.0000       0.046488         1.2650 
  65   0.0000       0.057815         1.5732 
  66   0.0000       0.066943         1.8216 
  67   0.0000       0.073271         1.9938 
  68   0.0000       0.084984         2.3125 
  69   0.0000       0.088098         2.3973 
  70   0.0000       0.101486         2.7616 
  71   0.0000       0.103989         2.8297 
  72   0.0000       0.107088         2.9140 
  73   0.0000       0.108462         2.9514 
  74   0.0000       0.123773         3.3680 
  75   0.0000       0.123794         3.3686 
  76   0.0000       0.142528         3.8784 
  77   0.0000       0.143400         3.9021 
  78   0.0000       0.156528         4.2593 
  79   0.0000       0.157914         4.2971 
  80   0.0000       0.164638         4.4800 
  81   0.0000       0.168273         4.5789 
  82   0.0000       0.172983         4.7071 
  83   0.0000       0.174807         4.7567 
  84   0.0000       0.200359         5.4521 
  85   0.0000       0.202563         5.5120 
  86   0.0000       0.223737         6.0882 
  87   0.0000       0.227802         6.1988 
  88   0.0000       0.229200         6.2369 
  89   0.0000       0.232422         6.3245 
  90   0.0000       0.234548         6.3824 
  91   0.0000       0.236558         6.4371 
  92   0.0000       0.237885         6.4732 
  93   0.0000       0.239048         6.5048 
  94   0.0000       0.239443         6.5156 
  95   0.0000       0.240484         6.5439 
  96   0.0000       0.240671         6.5490 
  97   0.0000       0.242537         6.5998 
  98   0.0000       0.243276         6.6199 
  99   0.0000       0.244414         6.6509 
 100   0.0000       0.244496         6.6531 
 101   0.0000       0.248082         6.7507 
 102   0.0000       0.255140         6.9427 
 103   0.0000       0.257902         7.0179 
 104   0.0000       0.265672         7.2293 
 105   0.0000       0.267210         7.2712 
 106   0.0000       0.282735         7.6936 
 107   0.0000       0.284820         7.7504 
 108   0.0000       0.301620         8.2075 
 109   0.0000       0.309098         8.4110 
 110   0.0000       0.309597         8.4246 
 111   0.0000       0.311981         8.4894 
 112   0.0000       0.332924         9.0593 
 113   0.0000       0.341579         9.2948 
 114   0.0000       0.352041         9.5795 
 115   0.0000       0.362856         9.8738 
 116   0.0000       0.405323        11.0294 
 117   0.0000       0.421471        11.4688 
 118   0.0000       0.422766        11.5041 
 119   0.0000       0.438025        11.9193 
-------
TIMINGS
-------

Total SCF time: 0 days 0 hours 0 min 0 sec 

Total time                  ....       0.123 sec
Sum of individual times     ....       0.094 sec  ( 76.7%)

Fock matrix formation       ....       0.046 sec  ( 37.3%)
Diagonalization             ....       0.023 sec  ( 19.1%)
Density matrix formation    ....       0.005 sec  (  4.3%)
Population analysis         ....       0.000 sec  (  0.0%)
Initial guess               ....       0.003 sec  (  2.3%)
Orbital Transformation      ....       0.000 sec  (  0.0%)
Orbital Orthonormalization  ....       0.000 sec  (  0.0%)
DIIS solution               ....       0.010 sec  (  8.4%)
SOSCF solution              ....       0.006 sec  (  5.3%)

-------------------------   --------------------
FINAL SINGLE POINT ENERGY       -20.375341759183
-------------------------   --------------------


                            ***************************************
                            *     ORCA property calculations      *
                            ***************************************

                                    ---------------------
                                    Active property flags
                                    ---------------------
   (+) Dipole Moment


------------------------------------------------------------------------------
                       ORCA ELECTRIC PROPERTIES CALCULATION
------------------------------------------------------------------------------

Dipole Moment Calculation                       ... on
Quadrupole Moment Calculation                   ... off
Polarizability Calculation                      ... off
GBWName                                         ... /Users/mattyjones/GoogleDrive/Boise/Code/MorphCT/tests/output_EZ/donor_polymer/chromophores/input_orca/pair/00015-00029.gbw
Electron density file                           ... /Users/mattyjones/GoogleDrive/Boise/Code/MorphCT/tests/output_EZ/donor_polymer/chromophores/input_orca/pair/00015-00029.scfp.tmp

-------------
DIPOLE MOMENT
-------------
                                X             Y             Z
Electronic contribution:    183.31657     145.21254      -8.65254
Nuclear contribution   :    -99.16604     -78.47144       4.51071
                        -----------------------------------------
Total Dipole Moment    :     84.15053      66.74110      -4.14183
                        -----------------------------------------
Magnitude (a.u.)       :    107.48414
Magnitude (Debye)      :    273.20298


Timings for individual modules:

Sum of individual times         ...        0.199 sec (=   0.003 min)
STO integral calculation        ...        0.041 sec (=   0.001 min)  20.7 %
SCF iterations                  ...        0.158 sec (=   0.003 min)  79.3 %
                             ****ORCA TERMINATED NORMALLY****
TOTAL RUN TIME: 0 days 0 hours 0 minutes 0 seconds 544 msec

