
                                 *****************
                                 * O   R   C   A *
                                 *****************

           --- An Ab Initio, DFT and Semiempirical electronic structure package ---

                  #######################################################
                  #                        -***-                        #
                  #  Department of molecular theory and spectroscopy    #
                  #              Directorship: Frank Neese              #
                  # Max Planck Institute for Chemical Energy Conversion #
                  #                  D-45470 Muelheim/Ruhr              #
                  #                       Germany                       #
                  #                                                     #
                  #                  All rights reserved                #
                  #                        -***-                        #
                  #######################################################


                         Program Version 4.0.1.2 - RELEASE -


 With contributions from (in alphabetic order):
   Daniel Aravena         : Magnetic Properties
   Michael Atanasov       : Ab Initio Ligand Field Theory
   Ute Becker             : Parallelization
   Martin Brehm           : Molecular dynamics
   Dmytro Bykov           : SCF Hessian
   Vijay G. Chilkuri      : MRCI spin determinant printing
   Dipayan Datta          : RHF DLPNO-CCSD density
   Achintya Kumar Dutta   : EOM-CC, STEOM-CC
   Dmitry Ganyushin       : Spin-Orbit,Spin-Spin,Magnetic field MRCI
   Yang Guo               : DLPNO-NEVPT2, CIM, IAO-localization
   Andreas Hansen         : Spin unrestricted coupled pair/coupled cluster methods
   Lee Huntington         : MR-EOM, pCC
   Robert Izsak           : Overlap fitted RIJCOSX, COSX-SCS-MP3, EOM
   Christian Kollmar      : KDIIS, OOCD, Brueckner-CCSD(T), CCSD density
   Simone Kossmann        : Meta GGA functionals, TD-DFT gradient, OOMP2, MP2 Hessian
   Martin Krupicka        : AUTO-CI
   Dagmar Lenk            : GEPOL surface
   Dimitrios Liakos       : Extrapolation schemes; parallel MDCI
   Dimitrios Manganas     : ROCIS; embedding schemes
   Dimitrios Pantazis     : SARC Basis sets
   Taras Petrenko         : DFT Hessian,TD-DFT gradient, ASA, ECA, R-Raman, ABS, FL, XAS/XES, NRVS
   Peter Pinski           : DLPNO-MP2
   Christoph Reimann      : Effective Core Potentials
   Marius Retegan         : Local ZFS, SOC
   Christoph Riplinger    : Optimizer, TS searches, QM/MM, DLPNO-CCSD(T), (RO)-DLPNO pert. Triples
   Tobias Risthaus        : Range-separated hybrids, TD-DFT gradient, RPA, STAB
   Michael Roemelt        : Restricted open shell CIS
   Masaaki Saitow         : Open-shell DLPNO
   Barbara Sandhoefer     : DKH picture change effects
   Kantharuban Sivalingam : CASSCF convergence, NEVPT2, FIC-MRCI
   Georgi Stoychev        : AutoAux
   Boris Wezisla          : Elementary symmetry handling
   Frank Wennmohs         : Technical directorship


 We gratefully acknowledge several colleagues who have allowed us to
 interface, adapt or use parts of their codes:
   Stefan Grimme, W. Hujo, H. Kruse,             : VdW corrections, initial TS optimization,
                  C. Bannwarth                     DFT functionals, gCP, sTDA/sTD-DF
   Ed Valeev                                     : LibInt (2-el integral package), F12 methods
   Garnet Chan, S. Sharma, J. Yang, R. Olivares  : DMRG
   Ulf Ekstrom                                   : XCFun DFT Library
   Mihaly Kallay                                 : mrcc  (arbitrary order and MRCC methods)
   Andreas Klamt, Michael Diedenhofen            : otool_cosmo (COSMO solvation model)
   Jiri Pittner, Ondrej Demel                    : Mk-CCSD
   Frank Weinhold                                : gennbo (NPA and NBO analysis)
   Christopher J. Cramer and Donald G. Truhlar   : smd solvation model


 Your calculation uses the libint2 library for the computation of 2-el integrals
 For citations please refer to: http://libint.valeyev.net

 This ORCA versions uses:
   CBLAS   interface :  Fast vector & matrix operations
   LAPACKE interface :  Fast linear algebra routines
   SCALAPACK package :  Parallel linear algebra routines


leaving
Your calculation utilizes the basis: def2-SVP
   F. Weigend and R. Ahlrichs, Phys. Chem. Chem. Phys. 7, 3297 (2005).

================================================================================
                                        WARNINGS
                       Please study these warnings very carefully!
================================================================================

Warning: TCutStore was < 0. Adjusted to Thresh (uncritical)

WARNING: Direct SCF is incompatible with Method<>HF and Method<>DFT
  ===> : conventional SCF is chosen

WARNING: The NDO methods need Guess=HUECKEL or Guess=HCORE or Guess=MOREAD
  ===> : Guess is set to Hueckel

WARNING: The NDO methods need %rel::SOCType==1
  ===> : %rel::SOCType is set to 1

WARNING: The NDO methods cannot have frozencore=1
  ===> : %method FrozenCore=0 end

INFO   : the flag for use of LIBINT has been found!

================================================================================
                                       INPUT FILE
================================================================================
NAME = /home/mattyjones/Software/morphct/tests/output_EZ/donor_polymer/chromophores/input_orca/pair/00014-00022.inp
|  1> # ================================================================
|  2> # Orca input file made by Matty Jones
|  3> # ================================================================
|  4> ! ZINDO/S 
|  5> ! NOPOP
|  6> ! NOMOPRINT
|  7> * xyz 0   1
|  8>  C  -15.08592  -6.85858  8.03292
|  9>  C  -15.86674  -7.78762  8.72221
| 10>  C  -15.11291  -8.72378  9.49655
| 11>  C  -13.72987  -8.53301  9.41830
| 12>  S  -13.51551  -7.23435  8.40937
| 13>  H  -17.00851  -7.78981  8.70858
| 14>  C  -15.73394  -9.94329  10.38288
| 15>  C  -16.99103  -9.88372  11.55626
| 16>  C  -17.32800  -11.38288  12.34361
| 17>  H  -17.40329  -11.11232  13.46864
| 18>  H  -16.36781  -12.01493  12.18703
| 19>  H  -17.95287  -9.55265  11.02419
| 20>  H  -16.69640  -9.12307  12.36195
| 21>  H  -14.84937  -10.43348  10.97411
| 22>  H  -16.13196  -10.74814  9.62899
| 23>  C  -18.59645  -12.35706  11.99748
| 24>  C  -18.65092  -13.84993  12.82095
| 25>  C  -18.04190  -15.15661  11.94656
| 26>  H  -16.91890  -14.98783  11.73106
| 27>  H  -18.62278  -15.24294  10.94828
| 28>  H  -18.18203  -16.12872  12.55854
| 29>  H  -18.02803  -13.74872  13.78520
| 30>  H  -19.74676  -14.07513  13.09230
| 31>  H  -18.60796  -12.58878  10.86692
| 32>  H  -19.57357  -11.80265  12.27564
| 33>  C  14.24288  7.67973  -12.66981
| 34>  C  15.12146  8.61717  -12.12468
| 35>  C  14.49245  9.58586  -11.28195
| 36>  C  13.11020  9.41247  -11.16103
| 37>  S  12.74420  8.08837  -12.09010
| 38>  H  16.24422  8.61919  -12.31830
| 39>  C  15.28250  10.78672  -10.55649
| 40>  C  16.29724  11.71579  -11.52741
| 41>  C  16.95421  13.01475  -10.66936
| 42>  H  16.08672  13.50362  -10.07488
| 43>  H  17.32144  13.78243  -11.45649
| 44>  H  17.14275  11.05283  -11.92887
| 45>  H  15.67727  12.13393  -12.40376
| 46>  H  14.62541  11.53289  -9.96995
| 47>  H  15.98894  10.29674  -9.74774
| 48>  C  18.17038  12.68108  -9.64660
| 49>  C  19.69859  12.57650  -10.34653
| 50>  C  20.09206  10.99373  -10.75926
| 51>  H  21.11368  10.98531  -11.30214
| 52>  H  19.28026  10.55501  -11.45495
| 53>  H  20.15980  10.35829  -9.79370
| 54>  H  19.72064  13.22232  -11.29958
| 55>  H  20.47774  12.96767  -9.59407
| 56>  H  17.95692  11.67844  -9.10899
| 57>  H  18.22273  13.51684  -8.84416
| 58>  H  -15.42530  -6.07747  7.40183
| 59>  H  -12.97624  -9.09977  9.90249
| 60>  H  14.48307  6.87599  -13.31782
| 61>  H  12.43721  10.00358  -10.59421
| 62> *
| 63> 
| 64>                          ****END OF INPUT****
================================================================================

                       ****************************
                       * Single Point Calculation *
                       ****************************

---------------------------------
CARTESIAN COORDINATES (ANGSTROEM)
---------------------------------
  C    -15.085920   -6.858580    8.032920
  C    -15.866740   -7.787620    8.722210
  C    -15.112910   -8.723780    9.496550
  C    -13.729870   -8.533010    9.418300
  S    -13.515510   -7.234350    8.409370
  H    -17.008510   -7.789810    8.708580
  C    -15.733940   -9.943290   10.382880
  C    -16.991030   -9.883720   11.556260
  C    -17.328000  -11.382880   12.343610
  H    -17.403290  -11.112320   13.468640
  H    -16.367810  -12.014930   12.187030
  H    -17.952870   -9.552650   11.024190
  H    -16.696400   -9.123070   12.361950
  H    -14.849370  -10.433480   10.974110
  H    -16.131960  -10.748140    9.628990
  C    -18.596450  -12.357060   11.997480
  C    -18.650920  -13.849930   12.820950
  C    -18.041900  -15.156610   11.946560
  H    -16.918900  -14.987830   11.731060
  H    -18.622780  -15.242940   10.948280
  H    -18.182030  -16.128720   12.558540
  H    -18.028030  -13.748720   13.785200
  H    -19.746760  -14.075130   13.092300
  H    -18.607960  -12.588780   10.866920
  H    -19.573570  -11.802650   12.275640
  C     14.242880    7.679730  -12.669810
  C     15.121460    8.617170  -12.124680
  C     14.492450    9.585860  -11.281950
  C     13.110200    9.412470  -11.161030
  S     12.744200    8.088370  -12.090100
  H     16.244220    8.619190  -12.318300
  C     15.282500   10.786720  -10.556490
  C     16.297240   11.715790  -11.527410
  C     16.954210   13.014750  -10.669360
  H     16.086720   13.503620  -10.074880
  H     17.321440   13.782430  -11.456490
  H     17.142750   11.052830  -11.928870
  H     15.677270   12.133930  -12.403760
  H     14.625410   11.532890   -9.969950
  H     15.988940   10.296740   -9.747740
  C     18.170380   12.681080   -9.646600
  C     19.698590   12.576500  -10.346530
  C     20.092060   10.993730  -10.759260
  H     21.113680   10.985310  -11.302140
  H     19.280260   10.555010  -11.454950
  H     20.159800   10.358290   -9.793700
  H     19.720640   13.222320  -11.299580
  H     20.477740   12.967670   -9.594070
  H     17.956920   11.678440   -9.108990
  H     18.222730   13.516840   -8.844160
  H    -15.425300   -6.077470    7.401830
  H    -12.976240   -9.099770    9.902490
  H     14.483070    6.875990  -13.317820
  H     12.437210   10.003580  -10.594210

----------------------------
CARTESIAN COORDINATES (A.U.)
----------------------------
  NO LB      ZA    FRAG     MASS         X           Y           Z
   0 C     4.0000    0    12.011  -28.508257  -12.960838   15.180019
   1 C     4.0000    0    12.011  -29.983793  -14.716469   16.482588
   2 C     4.0000    0    12.011  -28.559261  -16.485555   17.945879
   3 C     4.0000    0    12.011  -25.945694  -16.125052   17.798008
   4 S     6.0000    0    32.060  -25.540612  -13.670940   15.891406
   5 H     1.0000    0     1.008  -32.141426  -14.720608   16.456831
   6 C     4.0000    0    12.011  -29.732838  -18.790095   19.620800
   7 C     4.0000    0    12.011  -32.108393  -18.677524   21.838167
   8 C     4.0000    0    12.011  -32.745174  -21.510526   23.326042
   9 H     1.0000    0     1.008  -32.887452  -20.999242   25.452041
  10 H     1.0000    0     1.008  -30.930678  -22.704927   23.030149
  11 H     1.0000    0     1.008  -33.926008  -18.051892   20.832700
  12 H     1.0000    0     1.008  -31.551623  -17.240104   23.360700
  13 H     1.0000    0     1.008  -28.061243  -19.716420   20.738062
  14 H     1.0000    0     1.008  -30.484986  -20.311041   18.196154
  15 C     4.0000    0    12.011  -35.142198  -23.351459   22.671951
  16 C     4.0000    0    12.011  -35.245131  -26.172575   24.228084
  17 C     4.0000    0    12.011  -34.094250  -28.641842   22.575727
  18 H     1.0000    0     1.008  -31.972087  -28.322894   22.168491
  19 H     1.0000    0     1.008  -35.191954  -28.804982   20.689251
  20 H     1.0000    0     1.008  -34.359057  -30.478864   23.732201
  21 H     1.0000    0     1.008  -34.068039  -25.981315   26.050253
  22 H     1.0000    0     1.008  -37.315968  -26.598141   24.740861
  23 H     1.0000    0     1.008  -35.163948  -23.789347   20.535503
  24 H     1.0000    0     1.008  -36.988687  -22.303776   23.197598
  25 C     4.0000    0    12.011   26.915143   14.512586  -23.942471
  26 C     4.0000    0    12.011   28.575418   16.284091  -22.912325
  27 C     4.0000    0    12.011   27.386762   18.114650  -21.319796
  28 C     4.0000    0    12.011   24.774688   17.786991  -21.091290
  29 S     6.0000    0    32.060   24.083048   15.284804  -22.846978
  30 H     1.0000    0     1.008   30.697127   16.287909  -23.278213
  31 C     4.0000    0    12.011   28.879740   20.383947  -19.948875
  32 C     4.0000    0    12.011   30.797320   22.139635  -21.783648
  33 C     4.0000    0    12.011   32.038814   24.594313  -20.162168
  34 H     1.0000    0     1.008   30.399495   25.518144  -19.038764
  35 H     1.0000    0     1.008   32.732778   26.045018  -21.649629
  36 H     1.0000    0     1.008   32.395103   20.886822  -22.542297
  37 H     1.0000    0     1.008   29.625747   22.929805  -23.439709
  38 H     1.0000    0     1.008   27.638019   21.794004  -18.840475
  39 H     1.0000    0     1.008   30.214718   19.458019  -18.420559
  40 C     4.0000    0    12.011   34.337042   23.963768  -18.229432
  41 C     4.0000    0    12.011   37.224940   23.766141  -19.552108
  42 C     4.0000    0    12.011   37.968491   20.775139  -20.332055
  43 H     1.0000    0     1.008   39.899073   20.759227  -21.357949
  44 H     1.0000    0     1.008   36.434411   19.946078  -21.646718
  45 H     1.0000    0     1.008   38.096501   19.574331  -18.507411
  46 H     1.0000    0     1.008   37.266609   24.986564  -21.353112
  47 H     1.0000    0     1.008   38.697320   24.505345  -18.130165
  48 H     1.0000    0     1.008   33.933661   22.069053  -17.213496
  49 H     1.0000    0     1.008   34.435969   25.543126  -16.713040
  50 H     1.0000    0     1.008  -29.149593  -11.484754   13.987432
  51 H     1.0000    0     1.008  -24.521540  -17.196073   18.712994
  52 H     1.0000    0     1.008   27.369036   12.993738  -25.167033
  53 H     1.0000    0     1.008   23.502921   18.904027  -20.020156

--------------------------------
INTERNAL COORDINATES (ANGSTROEM)
--------------------------------
 C      0   0   0     0.000000000000     0.00000000     0.00000000
 C      1   0   0     1.395677576699     0.00000000     0.00000000
 C      2   1   0     1.429775384492   114.10137480     0.00000000
 C      3   2   1     1.398326105385   113.69319678     0.00000000
 S      1   2   3     1.658042600026   105.47956228     0.00000000
 H      2   1   3     1.141853452024   123.69669275   177.92547037
 C      3   2   1     1.630479613457   125.68376425   181.33896613
 C      7   3   2     1.720652340655   128.54146749   309.25281477
 C      8   7   3     1.726542646157   115.05644113   182.64311638
 H      9   8   7     1.159553275447   104.62669729   134.11964514
 H      9   8   7     1.160159185198   104.47572529    20.52977260
 H      8   7   3     1.147973002906   107.82109941    62.89953309
 H      8   7   3     1.146530259304   108.32686023   303.33441986
 H      7   3   2     1.171453470651   107.44070765   186.03974166
 H      7   3   2     1.172413568243   107.05056049    71.31412429
 C      9   8   7     1.636397889207   124.87196367   257.62171758
 C     16   9   8     1.705793263763   116.33708063   175.15275272
 C     17  16   9     1.686082991700   114.60497763   262.50055772
 H     18  17  16     1.155878859743   109.53931080    63.06944798
 H     18  17  16     1.158204386842   108.88043139   303.08192707
 H     18  17  16     1.157218125247   109.45243841   183.51546099
 H     17  16   9     1.152394671413   108.04780074    22.76959471
 H     17  16   9     1.151178165229   108.38469184   141.39042948
 H     16   9   8     1.154119817047   109.53959738    53.33810694
 H     16   9   8     1.157370696061   108.56712985   294.58885010
 C      5   1   2    37.911605440958   118.56098591   165.23199748
 C     26   5   1     1.395658728665   120.52944924   112.52555224
 C     27  26   5     1.429757933743   114.10144206   318.70513402
 C     28  27  26     1.398320707492   113.69351090     0.00000000
 S     26   5   1     1.658038623223    40.60097776    34.76004872
 H     27  26   5     1.139334368129   123.72207961   138.27491156
 C     28  27  26     1.610135383656   123.71104383   181.14485766
 C     32  28  27     1.683910323889   116.57624920    49.87392100
 C     33  32  28     1.689720824574   111.44721459   175.06479443
 H     34  33  32     1.159715157873   107.06945215   314.26912816
 H     34  33  32     1.159208390325   106.70560955   199.04088158
 H     33  32  28     1.146984417200   109.09457778   296.22279086
 H     33  32  28     1.152038707249   108.33470066    55.82814433
 H     32  28  27     1.154368272520   115.57641526   175.72703147
 H     32  28  27     1.180345049763   107.02473007   292.40708660
 C     34  33  32     1.623712768749   116.94293031    76.69973412
 C     41  34  33     1.684121368964   115.50818833    82.78131475
 C     42  41  34     1.682357146001   111.87666105   266.33613465
 H     43  42  41     1.156934317582   109.17719137   176.00617987
 H     43  42  41     1.155629289392   109.91086102    55.78888283
 H     43  42  41     1.157876856492   108.99063436   295.70974904
 H     42  41  34     1.151466012264   109.05878628    26.58123913
 H     42  41  34     1.151644364811   108.74039897   146.19050214
 H     41  34  33     1.157530411393   109.41607735   320.88714760
 H     41  34  33     1.159803972100   108.75549060   202.97512461
 H      1   2   3     1.059993492716   127.26042756   180.00037538
 H      4   3   2     1.060007089882   127.20647599   179.99946314
 H     26   5   1     1.060002916883   101.97746572   260.05084287
 H     29  28  27     1.060005417250   127.20651727   179.99981561

---------------------------
INTERNAL COORDINATES (A.U.)
---------------------------
 C      0   0   0     0.000000000000     0.00000000     0.00000000
 C      1   0   0     2.637448391216     0.00000000     0.00000000
 C      2   1   0     2.701883909712   114.10137480     0.00000000
 C      3   2   1     2.642453385090   113.69319678     0.00000000
 S      1   2   3     3.133246432423   105.47956228     0.00000000
 H      2   1   3     2.157790309399   123.69669275   177.92547037
 C      3   2   1     3.081159936376   125.68376425   181.33896613
 C      7   3   2     3.251561695528   128.54146749   309.25281477
 C      8   7   3     3.262692759773   115.05644113   182.64311638
 H      9   8   7     2.191238128286   104.62669729   134.11964514
 H      9   8   7     2.192383131778   104.47572529    20.52977260
 H      8   7   3     2.169354584627   107.82109941    62.89953309
 H      8   7   3     2.166628194339   108.32686023   303.33441986
 H      7   3   2     2.213726238162   107.44070765   186.03974166
 H      7   3   2     2.215540559672   107.05056049    71.31412429
 C      9   8   7     3.092343856727   124.87196367   257.62171758
 C     16   9   8     3.223482109600   116.33708063   175.15275272
 C     17  16   9     3.186235093376   114.60497763   262.50055772
 H     18  17  16     2.184294488903   109.53931080    63.06944798
 H     18  17  16     2.188689098238   108.88043139   303.08192707
 H     18  17  16     2.186825333926   109.45243841   183.51546099
 H     17  16   9     2.177710327160   108.04780074    22.76959471
 H     17  16   9     2.175411463633   108.38469184   141.39042948
 H     16   9   8     2.180970379950   109.53959738    53.33810694
 H     16   9   8     2.187113650981   108.56712985   294.58885010
 C      5   1   2    71.642551580690   118.56098591   165.23199748
 C     26   5   1     2.637412773594   120.52944924   112.52555224
 C     27  26   5     2.701850932575   114.10144206   318.70513402
 C     28  27  26     2.642443184550   113.69351090     0.00000000
 S     26   5   1     3.133238917356    40.60097776    34.76004872
 H     27  26   5     2.153029930728   123.72207961   138.27491156
 C     28  27  26     3.042714913645   123.71104383   181.14485766
 C     32  28  27     3.182129346233   116.57624920    49.87392100
 C     33  32  28     3.193109601229   111.44721459   175.06479443
 H     34  33  32     2.191544041737   107.06945215   314.26912816
 H     34  33  32     2.190586389858   106.70560955   199.04088158
 H     33  32  28     2.167486428384   109.09457778   296.22279086
 H     33  32  28     2.177037652377   108.33470066    55.82814433
 H     32  28  27     2.181439892750   115.57641526   175.72703147
 H     32  28  27     2.230528887582   107.02473007   292.40708660
 C     34  33  32     3.068372453087   116.94293031    76.69973412
 C     41  34  33     3.182528163626   115.50818833    82.78131475
 C     42  41  34     3.179194265387   111.87666105   266.33613465
 H     43  42  41     2.186289015166   109.17719137   176.00617987
 H     43  42  41     2.183822869288   109.91086102    55.78888283
 H     43  42  41     2.188070155576   108.99063436   295.70974904
 H     42  41  34     2.175955415698   109.05878628    26.58123913
 H     42  41  34     2.176292453166   108.74039897   146.19050214
 H     41  34  33     2.187415469218   109.41607735   320.88714760
 H     41  34  33     2.191711876304   108.75549060   202.97512461
 H      1   2   3     2.003097404972   127.26042756   180.00037538
 H      4   3   2     2.003123099892   127.20647599   179.99946314
 H     26   5   1     2.003115214066   101.97746572   260.05084287
 H     29  28  27     2.003119939076   127.20651727   179.99981561

----------------------------
SLATER BASIS SET DIM= 120
----------------------------
  0 C     2 shells
 l=0 nsto= 1
    2       1.625000000000        1.000000000000
 l=1 nsto= 1
    2       1.625000000000        1.000000000000
  1 C     2 shells
 l=0 nsto= 1
    2       1.625000000000        1.000000000000
 l=1 nsto= 1
    2       1.625000000000        1.000000000000
  2 C     2 shells
 l=0 nsto= 1
    2       1.625000000000        1.000000000000
 l=1 nsto= 1
    2       1.625000000000        1.000000000000
  3 C     2 shells
 l=0 nsto= 1
    2       1.625000000000        1.000000000000
 l=1 nsto= 1
    2       1.625000000000        1.000000000000
  4 S     2 shells
 l=0 nsto= 1
    3       1.925000000000        1.000000000000
 l=1 nsto= 1
    3       1.925000000000        1.000000000000
  5 H     1 shells
 l=0 nsto= 1
    1       1.200000000000        1.000000000000
  6 C     2 shells
 l=0 nsto= 1
    2       1.625000000000        1.000000000000
 l=1 nsto= 1
    2       1.625000000000        1.000000000000
  7 C     2 shells
 l=0 nsto= 1
    2       1.625000000000        1.000000000000
 l=1 nsto= 1
    2       1.625000000000        1.000000000000
  8 C     2 shells
 l=0 nsto= 1
    2       1.625000000000        1.000000000000
 l=1 nsto= 1
    2       1.625000000000        1.000000000000
  9 H     1 shells
 l=0 nsto= 1
    1       1.200000000000        1.000000000000
 10 H     1 shells
 l=0 nsto= 1
    1       1.200000000000        1.000000000000
 11 H     1 shells
 l=0 nsto= 1
    1       1.200000000000        1.000000000000
 12 H     1 shells
 l=0 nsto= 1
    1       1.200000000000        1.000000000000
 13 H     1 shells
 l=0 nsto= 1
    1       1.200000000000        1.000000000000
 14 H     1 shells
 l=0 nsto= 1
    1       1.200000000000        1.000000000000
 15 C     2 shells
 l=0 nsto= 1
    2       1.625000000000        1.000000000000
 l=1 nsto= 1
    2       1.625000000000        1.000000000000
 16 C     2 shells
 l=0 nsto= 1
    2       1.625000000000        1.000000000000
 l=1 nsto= 1
    2       1.625000000000        1.000000000000
 17 C     2 shells
 l=0 nsto= 1
    2       1.625000000000        1.000000000000
 l=1 nsto= 1
    2       1.625000000000        1.000000000000
 18 H     1 shells
 l=0 nsto= 1
    1       1.200000000000        1.000000000000
 19 H     1 shells
 l=0 nsto= 1
    1       1.200000000000        1.000000000000
 20 H     1 shells
 l=0 nsto= 1
    1       1.200000000000        1.000000000000
 21 H     1 shells
 l=0 nsto= 1
    1       1.200000000000        1.000000000000
 22 H     1 shells
 l=0 nsto= 1
    1       1.200000000000        1.000000000000
 23 H     1 shells
 l=0 nsto= 1
    1       1.200000000000        1.000000000000
 24 H     1 shells
 l=0 nsto= 1
    1       1.200000000000        1.000000000000
 25 C     2 shells
 l=0 nsto= 1
    2       1.625000000000        1.000000000000
 l=1 nsto= 1
    2       1.625000000000        1.000000000000
 26 C     2 shells
 l=0 nsto= 1
    2       1.625000000000        1.000000000000
 l=1 nsto= 1
    2       1.625000000000        1.000000000000
 27 C     2 shells
 l=0 nsto= 1
    2       1.625000000000        1.000000000000
 l=1 nsto= 1
    2       1.625000000000        1.000000000000
 28 C     2 shells
 l=0 nsto= 1
    2       1.625000000000        1.000000000000
 l=1 nsto= 1
    2       1.625000000000        1.000000000000
 29 S     2 shells
 l=0 nsto= 1
    3       1.925000000000        1.000000000000
 l=1 nsto= 1
    3       1.925000000000        1.000000000000
 30 H     1 shells
 l=0 nsto= 1
    1       1.200000000000        1.000000000000
 31 C     2 shells
 l=0 nsto= 1
    2       1.625000000000        1.000000000000
 l=1 nsto= 1
    2       1.625000000000        1.000000000000
 32 C     2 shells
 l=0 nsto= 1
    2       1.625000000000        1.000000000000
 l=1 nsto= 1
    2       1.625000000000        1.000000000000
 33 C     2 shells
 l=0 nsto= 1
    2       1.625000000000        1.000000000000
 l=1 nsto= 1
    2       1.625000000000        1.000000000000
 34 H     1 shells
 l=0 nsto= 1
    1       1.200000000000        1.000000000000
 35 H     1 shells
 l=0 nsto= 1
    1       1.200000000000        1.000000000000
 36 H     1 shells
 l=0 nsto= 1
    1       1.200000000000        1.000000000000
 37 H     1 shells
 l=0 nsto= 1
    1       1.200000000000        1.000000000000
 38 H     1 shells
 l=0 nsto= 1
    1       1.200000000000        1.000000000000
 39 H     1 shells
 l=0 nsto= 1
    1       1.200000000000        1.000000000000
 40 C     2 shells
 l=0 nsto= 1
    2       1.625000000000        1.000000000000
 l=1 nsto= 1
    2       1.625000000000        1.000000000000
 41 C     2 shells
 l=0 nsto= 1
    2       1.625000000000        1.000000000000
 l=1 nsto= 1
    2       1.625000000000        1.000000000000
 42 C     2 shells
 l=0 nsto= 1
    2       1.625000000000        1.000000000000
 l=1 nsto= 1
    2       1.625000000000        1.000000000000
 43 H     1 shells
 l=0 nsto= 1
    1       1.200000000000        1.000000000000
 44 H     1 shells
 l=0 nsto= 1
    1       1.200000000000        1.000000000000
 45 H     1 shells
 l=0 nsto= 1
    1       1.200000000000        1.000000000000
 46 H     1 shells
 l=0 nsto= 1
    1       1.200000000000        1.000000000000
 47 H     1 shells
 l=0 nsto= 1
    1       1.200000000000        1.000000000000
 48 H     1 shells
 l=0 nsto= 1
    1       1.200000000000        1.000000000000
 49 H     1 shells
 l=0 nsto= 1
    1       1.200000000000        1.000000000000
 50 H     1 shells
 l=0 nsto= 1
    1       1.200000000000        1.000000000000
 51 H     1 shells
 l=0 nsto= 1
    1       1.200000000000        1.000000000000
 52 H     1 shells
 l=0 nsto= 1
    1       1.200000000000        1.000000000000
 53 H     1 shells
 l=0 nsto= 1
    1       1.200000000000        1.000000000000
------------------------------------------------------------------------------
                           ORCA NDO INTEGRAL CALCULATION
------------------------------------------------------------------------------

--------------
NDO PARAMETERS
--------------

Gamma integral treatment              ... Mataga-Nishimoto
Nuclear repulsuion treatment          ... Direct (ZA*ZB/RAB)
Interaction factors:
s-s (sigma) =    1.0000
s-p (sigma) =    1.0000
s-d (sigma) =    1.0000
p-p (sigma) =    1.2670  p-p(pi) =    0.5850
p-d (sigma) =    1.0000  p-d(pi) =    1.0000
d-d (sigma) =    1.0000  d-d(pi) =    1.0000 d-d (delta) =    1.0000

fGamma parameter for Mataga-Nishimoto gamma integrals:    1.2000

--------------------------
Parameters for Element H :
--------------------------
 One-electron parameters (in eV)
  U(s)  =   -13.060000 Beta(s) =    12.000000 Neff(s) =     1.000000
 One-center electron repulsion parameters (in eV)
  G(s,s)=    12.850000
--------------------------
Parameters for Element C :
--------------------------
 One-electron parameters (in eV)
  U(s)  =   -50.870766 Beta(s) =    17.000000 Neff(s) =     2.000000
  U(p)  =   -41.599980 Beta(p) =    17.000000 Neff(p) =     2.000000 
 One-center electron repulsion parameters (in eV)
  G(s,s)=    11.110000
  G(s,p)=    11.110000 G(p,p)  =    11.110000
 Slater-Condon parameters (in eV)
 F2(p,p)=     4.5098 G1(s,p)=    6.8977
--------------------------
Parameters for Element S :
--------------------------
 One-electron parameters (in eV)
  U(s)  =   -69.509597 Beta(s) =    15.000000 Neff(s) =     2.000000
  U(p)  =   -60.725746 Beta(p) =    15.000000 Neff(p) =     4.000000 
 One-center electron repulsion parameters (in eV)
  G(s,s)=    10.090000
  G(s,p)=    10.090000 G(p,p)  =    10.090000
 Slater-Condon parameters (in eV)
 F2(p,p)=     4.5377 G1(s,p)=    3.0756

 Number of atoms                    ....   54
 Number of basis functions          ....  120

 Overlap integrals                  .... done
 One electron matrix                .... done
 Nuclear repulsion                  .... done
 Integral list                      .... done
 Electron-electron repulsion        .... done
-------------------------------------------------------------------------------
                                 ORCA SCF
-------------------------------------------------------------------------------

------------
SCF SETTINGS
------------
Hamiltonian:
 ZDO-Hamiltonian        Method          .... INDO


General Settings:
 Integral files         IntName         .... /home/mattyjones/Software/morphct/tests/output_EZ/donor_polymer/chromophores/input_orca/pair/00014-00022
 Hartree-Fock type      HFTyp           .... RHF
 Total Charge           Charge          ....    0
 Multiplicity           Mult            ....    1
 Number of Electrons    NEL             ....  124
 Basis Dimension        Dim             ....  120
 Nuclear Repulsion      ENuc            ....    631.8919803025 Eh

Convergence Acceleration:
 DIIS                   CNVDIIS         .... on
   Start iteration      DIISMaxIt       ....    12
   Startup error        DIISStart       ....  0.200000
   # of expansion vecs  DIISMaxEq       ....     5
   Bias factor          DIISBfac        ....   1.050
   Max. coefficient     DIISMaxC        ....  10.000
 Newton-Raphson         CNVNR           .... off
 SOSCF                  CNVSOSCF        .... on
   Start iteration      SOSCFMaxIt      ....   150
   Startup grad/error   SOSCFStart      ....  0.003300
 Level Shifting         CNVShift        .... on
   Level shift para.    LevelShift      ....    0.2500
   Turn off err/grad.   ShiftErr        ....    0.0010
 Zerner damping         CNVZerner       .... off
 Static damping         CNVDamp         .... on
   Fraction old density DampFac         ....    0.7000
   Max. Damping (<1)    DampMax         ....    0.9800
   Min. Damping (>=0)   DampMin         ....    0.0000
   Turn off err/grad.   DampErr         ....    0.1000
 Fernandez-Rico         CNVRico         .... off

SCF Procedure:
 Maximum # iterations   MaxIter         ....   125
 SCF integral mode      SCFMode         .... Conventional
 Integral Buffer length BufferLength    .... 1048576
 Integral index format  IndFormat       ....     0
 Integral value format  ValFormat       ....     0
 Integral Storage       Thresh          ....  1.000e-08 Eh

Convergence Tolerance:
 Convergence Check Mode ConvCheckMode   .... Total+1el-Energy
 Convergence forced     ConvForced      .... 0
 Energy Change          TolE            ....  1.000e-06 Eh
 1-El. energy change                    ....  1.000e-03 Eh
 Orbital Gradient       TolG            ....  5.000e-05
 Orbital Rotation angle TolX            ....  5.000e-05
 DIIS Error             TolErr          ....  1.000e-06


Diagonalization of the overlap matrix:
Smallest eigenvalue                        ... 1.698e-01
Time for diagonalization                   ...    0.003 sec
Threshold for overlap eigenvalues          ... 1.000e-08
Number of eigenvalues below threshold      ... 0
Time for construction of square roots      ...    0.000 sec
Total time needed                          ...    0.004 sec

-------------------------------
INITIAL GUESS: EXTENDED HUECKEL
-------------------------------
EHT matrix was read from disk
EHT matrix was diagonalized
Initial density was built
                      ------------------
                      INITIAL GUESS DONE
                      ------------------

 InCore treatment chosen:
   Memory dedicated               ...    1024 MB
   Memory needed                  ...      0 MB
   Number of tiny    integrals    ...       0
   Number of small   integrals    ...       0
   Number of regular integrals    ...    7392

--------------
SCF ITERATIONS
--------------
ITER       Energy         Delta-E        Max-DP      RMS-DP      [F,P]     Damp
  0    -21.6474445642   0.000000000000 0.04122999  0.00144185  0.1088716 0.7000
  1    -21.6889552735  -0.041510709296 0.03883850  0.00135730  0.0744823 0.7000
                               ***Turning on DIIS***
  2    -21.7196682378  -0.030712964265 0.09838477  0.00348168  0.0470594 0.0000
  3    -21.8008805425  -0.081212304727 0.01821245  0.00071849  0.0206544 0.0000
  4    -21.7849310142   0.015949528306 0.01094313  0.00049196  0.0067492 0.0000
  5    -21.8016835181  -0.016752503943 0.00745783  0.00033347  0.0038924 0.0000
  6    -21.8042827711  -0.002599253001 0.00568792  0.00023744  0.0020555 0.0000
                      *** Initiating the SOSCF procedure ***
                           *** Shutting down DIIS ***
                      *** Re-Reading the Fockian *** 
                      *** Removing any level shift *** 
ITER      Energy       Delta-E        Grad      Rot      Max-DP    RMS-DP
  7    -21.80021620   0.0040665725  0.003001  0.003001  0.003380  0.000133
  8    -21.79843261   0.0017835886  0.000796  0.002182  0.001683  0.000061
  9    -21.79844688  -0.0000142736  0.000352  0.002134  0.001880  0.000065
 10    -21.79845210  -0.0000052155  0.000027  0.000055  0.000105  0.000004
                 **** Energy Check signals convergence ****
              ***Rediagonalizing the Fockian in SOSCF/NRSCF***

               *****************************************************
               *                     SUCCESS                       *
               *           SCF CONVERGED AFTER  11 CYCLES          *
               *****************************************************


----------------
TOTAL SCF ENERGY
----------------

Total Energy       :          -21.79845214 Eh            -593.16604 eV

Components:
Nuclear Repulsion  :          631.89198030 Eh           17194.65494 eV
Electronic Energy  :         -653.69043244 Eh          -17787.82098 eV
One Electron Energy:        -1216.96400492 Eh          -33115.27412 eV
Two Electron Energy:          563.27357247 Eh           15327.45314 eV


---------------
SCF CONVERGENCE
---------------

  Last Energy change         ...   -4.2939e-08  Tolerance :   1.0000e-06
  Last MAX-Density change    ...    3.3855e-05  Tolerance :   1.0000e-05
  Last RMS-Density change    ...    1.1416e-06  Tolerance :   1.0000e-06
  Last Orbital Gradient      ...    6.8929e-06  Tolerance :   5.0000e-05
  Last Orbital Rotation      ...    1.8133e-05  Tolerance :   5.0000e-05

             **** THE GBW FILE WAS UPDATED (/home/mattyjones/Software/morphct/tests/output_EZ/donor_polymer/chromophores/input_orca/pair/00014-00022.gbw) ****
             **** DENSITY FILE WAS UPDATED (/home/mattyjones/Software/morphct/tests/output_EZ/donor_polymer/chromophores/input_orca/pair/00014-00022.scfp.tmp) ****
             **** ENERGY FILE WAS UPDATED (/home/mattyjones/Software/morphct/tests/output_EZ/donor_polymer/chromophores/input_orca/pair/00014-00022.en.tmp) ****
----------------
ORBITAL ENERGIES
----------------

  NO   OCC          E(Eh)            E(eV) 
   0   2.0000      -1.557674       -42.3865 
   1   2.0000      -1.554361       -42.2963 
   2   2.0000      -1.416114       -38.5344 
   3   2.0000      -1.385968       -37.7141 
   4   2.0000      -1.289213       -35.0813 
   5   2.0000      -1.286888       -35.0180 
   6   2.0000      -1.177759       -32.0485 
   7   2.0000      -1.175458       -31.9858 
   8   2.0000      -1.115509       -30.3545 
   9   2.0000      -1.110243       -30.2112 
  10   2.0000      -1.042410       -28.3654 
  11   2.0000      -1.041513       -28.3410 
  12   2.0000      -0.951442       -25.8901 
  13   2.0000      -0.950066       -25.8526 
  14   2.0000      -0.912101       -24.8195 
  15   2.0000      -0.905074       -24.6283 
  16   2.0000      -0.863957       -23.5095 
  17   2.0000      -0.859170       -23.3792 
  18   2.0000      -0.832537       -22.6545 
  19   2.0000      -0.831388       -22.6232 
  20   2.0000      -0.776645       -21.1336 
  21   2.0000      -0.775614       -21.1055 
  22   2.0000      -0.737138       -20.0585 
  23   2.0000      -0.724501       -19.7147 
  24   2.0000      -0.711215       -19.3531 
  25   2.0000      -0.680349       -18.5132 
  26   2.0000      -0.670519       -18.2458 
  27   2.0000      -0.659942       -17.9579 
  28   2.0000      -0.658011       -17.9054 
  29   2.0000      -0.641172       -17.4472 
  30   2.0000      -0.619485       -16.8570 
  31   2.0000      -0.609130       -16.5753 
  32   2.0000      -0.588276       -16.0078 
  33   2.0000      -0.581980       -15.8365 
  34   2.0000      -0.577717       -15.7205 
  35   2.0000      -0.573820       -15.6144 
  36   2.0000      -0.572469       -15.5777 
  37   2.0000      -0.569095       -15.4859 
  38   2.0000      -0.553527       -15.0622 
  39   2.0000      -0.549104       -14.9419 
  40   2.0000      -0.545916       -14.8551 
  41   2.0000      -0.532407       -14.4875 
  42   2.0000      -0.515885       -14.0379 
  43   2.0000      -0.515578       -14.0296 
  44   2.0000      -0.509600       -13.8669 
  45   2.0000      -0.505881       -13.7657 
  46   2.0000      -0.498307       -13.5596 
  47   2.0000      -0.496575       -13.5125 
  48   2.0000      -0.492888       -13.4122 
  49   2.0000      -0.484219       -13.1763 
  50   2.0000      -0.481154       -13.0929 
  51   2.0000      -0.474603       -12.9146 
  52   2.0000      -0.471177       -12.8214 
  53   2.0000      -0.469852       -12.7853 
  54   2.0000      -0.465176       -12.6581 
  55   2.0000      -0.458749       -12.4832 
  56   2.0000      -0.440643       -11.9905 
  57   2.0000      -0.437344       -11.9007 
  58   2.0000      -0.357870        -9.7381 
  59   2.0000      -0.356200        -9.6927 
  60   2.0000      -0.305360        -8.3093 
  61   2.0000      -0.304497        -8.2858 
  62   0.0000       0.007105         0.1933 
  63   0.0000       0.008092         0.2202 
  64   0.0000       0.059934         1.6309 
  65   0.0000       0.070867         1.9284 
  66   0.0000       0.074241         2.0202 
  67   0.0000       0.080408         2.1880 
  68   0.0000       0.084574         2.3014 
  69   0.0000       0.088208         2.4003 
  70   0.0000       0.103825         2.8252 
  71   0.0000       0.105146         2.8612 
  72   0.0000       0.107610         2.9282 
  73   0.0000       0.109309         2.9744 
  74   0.0000       0.122334         3.3289 
  75   0.0000       0.123068         3.3489 
  76   0.0000       0.141309         3.8452 
  77   0.0000       0.143000         3.8912 
  78   0.0000       0.154821         4.2129 
  79   0.0000       0.157813         4.2943 
  80   0.0000       0.164822         4.4850 
  81   0.0000       0.165607         4.5064 
  82   0.0000       0.168732         4.5914 
  83   0.0000       0.171901         4.6777 
  84   0.0000       0.203935         5.5493 
  85   0.0000       0.206783         5.6268 
  86   0.0000       0.230894         6.2829 
  87   0.0000       0.233475         6.3532 
  88   0.0000       0.234542         6.3822 
  89   0.0000       0.235702         6.4138 
  90   0.0000       0.235796         6.4163 
  91   0.0000       0.238207         6.4819 
  92   0.0000       0.238628         6.4934 
  93   0.0000       0.239436         6.5154 
  94   0.0000       0.241248         6.5647 
  95   0.0000       0.242578         6.6009 
  96   0.0000       0.243193         6.6176 
  97   0.0000       0.244111         6.6426 
  98   0.0000       0.245254         6.6737 
  99   0.0000       0.246305         6.7023 
 100   0.0000       0.247762         6.7419 
 101   0.0000       0.257068         6.9952 
 102   0.0000       0.258024         7.0212 
 103   0.0000       0.264902         7.2084 
 104   0.0000       0.266857         7.2615 
 105   0.0000       0.269547         7.3347 
 106   0.0000       0.270067         7.3489 
 107   0.0000       0.282281         7.6813 
 108   0.0000       0.298327         8.1179 
 109   0.0000       0.302070         8.2197 
 110   0.0000       0.309639         8.4257 
 111   0.0000       0.310514         8.4495 
 112   0.0000       0.341897         9.3035 
 113   0.0000       0.342484         9.3195 
 114   0.0000       0.352034         9.5793 
 115   0.0000       0.355884         9.6841 
 116   0.0000       0.408441        11.1142 
 117   0.0000       0.411724        11.2036 
 118   0.0000       0.430986        11.7277 
 119   0.0000       0.432088        11.7577 
-------
TIMINGS
-------

Total SCF time: 0 days 0 hours 0 min 0 sec 

Total time                  ....       0.116 sec
Sum of individual times     ....       0.099 sec  ( 85.1%)

Fock matrix formation       ....       0.046 sec  ( 39.5%)
Diagonalization             ....       0.025 sec  ( 21.7%)
Density matrix formation    ....       0.003 sec  (  2.6%)
Population analysis         ....       0.000 sec  (  0.0%)
Initial guess               ....       0.003 sec  (  2.7%)
Orbital Transformation      ....       0.000 sec  (  0.0%)
Orbital Orthonormalization  ....       0.000 sec  (  0.0%)
DIIS solution               ....       0.005 sec  (  4.0%)
SOSCF solution              ....       0.017 sec  ( 14.5%)

-------------------------   --------------------
FINAL SINGLE POINT ENERGY       -21.798452142103
-------------------------   --------------------


                            ***************************************
                            *     ORCA property calculations      *
                            ***************************************

                                    ---------------------
                                    Active property flags
                                    ---------------------
   (+) Dipole Moment


------------------------------------------------------------------------------
                       ORCA ELECTRIC PROPERTIES CALCULATION
------------------------------------------------------------------------------

Dipole Moment Calculation                       ... on
Quadrupole Moment Calculation                   ... off
Polarizability Calculation                      ... off
GBWName                                         ... /home/mattyjones/Software/morphct/tests/output_EZ/donor_polymer/chromophores/input_orca/pair/00014-00022.gbw
Electron density file                           ... /home/mattyjones/Software/morphct/tests/output_EZ/donor_polymer/chromophores/input_orca/pair/00014-00022.scfp.tmp
The origin for moment calculation is the CENTER OF MASS  = (-0.237979,  0.308711 -0.890335)

-------------
DIPOLE MOMENT
-------------
                                X             Y             Z
Electronic contribution:    -29.54464      23.99059     -93.81843
Nuclear contribution   :     12.72167     -15.54288      52.80297
                        -----------------------------------------
Total Dipole Moment    :    -16.82298       8.44771     -41.01545
                        -----------------------------------------
Magnitude (a.u.)       :     45.12919
Magnitude (Debye)      :    114.70929


Timings for individual modules:

Sum of individual times         ...        0.144 sec (=   0.002 min)
STO integral calculation        ...        0.018 sec (=   0.000 min)  12.7 %
SCF iterations                  ...        0.126 sec (=   0.002 min)  87.3 %
                             ****ORCA TERMINATED NORMALLY****
TOTAL RUN TIME: 0 days 0 hours 0 minutes 0 seconds 400 msec

