
                                 *****************
                                 * O   R   C   A *
                                 *****************

           --- An Ab Initio, DFT and Semiempirical electronic structure package ---

                  #######################################################
                  #                        -***-                        #
                  #  Department of molecular theory and spectroscopy    #
                  #              Directorship: Frank Neese              #
                  # Max Planck Institute for Chemical Energy Conversion #
                  #                  D-45470 Muelheim/Ruhr              #
                  #                       Germany                       #
                  #                                                     #
                  #                  All rights reserved                #
                  #                        -***-                        #
                  #######################################################


                         Program Version 3.0.3 - RELEASE   -


 With contributions from (in alphabetic order):
   Ute Becker             : Parallelization
   Dmytro Bykov           : SCF Hessian
   Dmitry Ganyushin       : Spin-Orbit,Spin-Spin,Magnetic field MRCI
   Andreas Hansen         : Spin unrestricted coupled pair/coupled cluster methods
   Dimitrios Liakos       : Extrapolation schemes; parallel MDCI
   Robert Izsak           : Overlap fitted RIJCOSX, COSX-SCS-MP3
   Christian Kollmar      : KDIIS, OOCD, Brueckner-CCSD(T), CCSD density
   Simone Kossmann        : Meta GGA functionals, TD-DFT gradient, OOMP2, MP2 Hessian
   Taras Petrenko         : DFT Hessian,TD-DFT gradient, ASA and ECA modules, normal mode analysis, Resonance Raman, ABS, FL, XAS/XES, NRVS
   Christoph Reimann      : Effective Core Potentials
   Michael Roemelt        : Restricted open shell CIS
   Christoph Riplinger    : Improved optimizer, TS searches, QM/MM, DLPNO-CCSD
   Barbara Sandhoefer     : DKH picture change effects
   Igor Schapiro          : Molecular dynamics
   Kantharuban Sivalingam : CASSCF convergence, NEVPT2
   Boris Wezisla          : Elementary symmetry handling
   Frank Wennmohs         : Technical directorship


 We gratefully acknowledge several colleagues who have allowed us to
 interface, adapt or use parts of their codes:
   Stefan Grimme, W. Hujo, H. Kruse, T. Risthaus : VdW corrections, initial TS optimization,
                                                   DFT functionals, gCP
   Ed Valeev                                     : LibInt (2-el integral package), F12 methods
   Garnet Chan, S. Sharma, R. Olivares           : DMRG
   Ulf Ekstrom                                   : XCFun DFT Library
   Mihaly Kallay                                 : mrcc  (arbitrary order and MRCC methods)
   Andreas Klamt, Michael Diedenhofen            : otool_cosmo (COSMO solvation model)
   Frank Weinhold                                : gennbo (NPA and NBO analysis)
   Christopher J. Cramer and Donald G. Truhlar   : smd solvation model


 Your calculation uses the libint2 library for the computation of 2-el integrals
 For citations please refer to: http://libint.valeyev.net

 This ORCA versions uses:
   CBLAS   interface :  Fast vector & matrix operations
   LAPACKE interface :  Fast linear algebra routines
   SCALAPACK package :  Parallel linear algebra routines


leaving
================================================================================
                                        WARNINGS
                       Please study these warnings very carefully!
================================================================================
Now building the actual basis set

WARNING: Direct SCF is incompatible with Method<>HF and Method<>DFT
  ===> : conventional SCF is chosen

WARNING: The NDO methods need Guess=HUECKEL or Guess=HCORE or Guess=MOREAD
  ===> : Guess is set to Hueckel

WARNING: The NDO methods need %rel::SOCType==1
  ===> : %rel::SOCType is set to 1

WARNING: The NDO methods cannot have frozencore=1
  ===> : %method FrozenCore=0 end


INFO   : the flag for use of LIBINT has been found!

================================================================================
                                       INPUT FILE
================================================================================
NAME = /Users/mattyjones/GoogleDrive/Boise/Code/MorphCT/tests/output_EZ/donor_polymer/chromophores/input_orca/pair/00015-00026.inp
|  1> # ================================================================
|  2> # Orca input file made by Matty Jones
|  3> # ================================================================
|  4> ! ZINDO/S 
|  5> ! NOPOP
|  6> ! NOMOPRINT
|  7> * xyz 0   1
|  8>  C  9.76098  -14.71488  27.86456
|  9>  C  9.86173  -15.84561  28.67647
| 10>  C  10.01478  -15.55366  30.06773
| 11>  C  10.03498  -14.18548  30.35586
| 12>  S  9.86482  -13.41979  28.89463
| 13>  H  10.26319  -16.82029  28.21471
| 14>  C  10.09354  -16.91801  30.94684
| 15>  C  8.75759  -17.89983  30.34506
| 16>  C  8.00464  -19.43883  30.49501
| 17>  H  6.86820  -19.25407  30.57633
| 18>  H  8.38934  -19.91732  31.46970
| 19>  H  8.98968  -17.96630  29.21733
| 20>  H  7.86861  -17.17636  30.51533
| 21>  H  9.92367  -16.71569  32.06717
| 22>  H  11.08040  -17.48602  30.77126
| 23>  C  8.30109  -20.43561  29.23083
| 24>  C  7.24176  -21.74998  29.06968
| 25>  C  7.68421  -23.14387  29.89218
| 26>  H  8.75274  -23.45525  29.57584
| 27>  H  6.94001  -23.99248  29.63396
| 28>  H  7.65805  -22.93836  31.03078
| 29>  H  7.17345  -22.00876  27.94693
| 30>  H  6.20333  -21.42162  29.44693
| 31>  H  9.37229  -20.85989  29.32221
| 32>  H  8.22413  -19.83793  28.24232
| 33>  C  -10.64934  15.20253  -32.43742
| 34>  C  -10.06791  15.86434  -31.35490
| 35>  C  -10.91011  16.85033  -30.75259
| 36>  C  -12.16290  16.96767  -31.36257
| 37>  S  -12.16261  15.86088  -32.59766
| 38>  H  -9.01033  15.65358  -30.97822
| 39>  C  -10.49333  17.78433  -29.49668
| 40>  C  -9.17874  18.83068  -29.73075
| 41>  C  -8.76360  19.87624  -28.45954
| 42>  H  -9.74253  20.35396  -28.06957
| 43>  H  -8.29410  19.25187  -27.61139
| 44>  H  -8.25453  18.18893  -29.97224
| 45>  H  -9.44416  19.48944  -30.63953
| 46>  H  -11.38511  18.40691  -29.09410
| 47>  H  -10.16169  17.08167  -28.62029
| 48>  C  -7.74685  21.05814  -28.94434
| 49>  C  -6.08344  20.77265  -28.89076
| 50>  C  -5.63393  19.31762  -28.18460
| 51>  H  -4.49018  19.17725  -28.29760
| 52>  H  -6.18343  18.44416  -28.70570
| 53>  H  -5.91013  19.33989  -27.06064
| 54>  H  -5.69124  20.77420  -29.97642
| 55>  H  -5.58554  21.63204  -28.30529
| 56>  H  -8.00032  21.34046  -30.03967
| 57>  H  -7.93834  21.99216  -28.28343
| 58>  H  9.64297  -14.68944  26.81146
| 59>  H  10.13758  -13.73257  31.30872
| 60>  H  -10.21506  14.43982  -33.03180
| 61>  H  -12.94831  17.62616  -31.09217
| 62> *
| 63> 
| 64>                          ****END OF INPUT****
================================================================================

                       ****************************
                       * Single Point Calculation *
                       ****************************

---------------------------------
CARTESIAN COORDINATES (ANGSTROEM)
---------------------------------
  C      9.760980  -14.714880   27.864560
  C      9.861730  -15.845610   28.676470
  C     10.014780  -15.553660   30.067730
  C     10.034980  -14.185480   30.355860
  S      9.864820  -13.419790   28.894630
  H     10.263190  -16.820290   28.214710
  C     10.093540  -16.918010   30.946840
  C      8.757590  -17.899830   30.345060
  C      8.004640  -19.438830   30.495010
  H      6.868200  -19.254070   30.576330
  H      8.389340  -19.917320   31.469700
  H      8.989680  -17.966300   29.217330
  H      7.868610  -17.176360   30.515330
  H      9.923670  -16.715690   32.067170
  H     11.080400  -17.486020   30.771260
  C      8.301090  -20.435610   29.230830
  C      7.241760  -21.749980   29.069680
  C      7.684210  -23.143870   29.892180
  H      8.752740  -23.455250   29.575840
  H      6.940010  -23.992480   29.633960
  H      7.658050  -22.938360   31.030780
  H      7.173450  -22.008760   27.946930
  H      6.203330  -21.421620   29.446930
  H      9.372290  -20.859890   29.322210
  H      8.224130  -19.837930   28.242320
  C    -10.649340   15.202530  -32.437420
  C    -10.067910   15.864340  -31.354900
  C    -10.910110   16.850330  -30.752590
  C    -12.162900   16.967670  -31.362570
  S    -12.162610   15.860880  -32.597660
  H     -9.010330   15.653580  -30.978220
  C    -10.493330   17.784330  -29.496680
  C     -9.178740   18.830680  -29.730750
  C     -8.763600   19.876240  -28.459540
  H     -9.742530   20.353960  -28.069570
  H     -8.294100   19.251870  -27.611390
  H     -8.254530   18.188930  -29.972240
  H     -9.444160   19.489440  -30.639530
  H    -11.385110   18.406910  -29.094100
  H    -10.161690   17.081670  -28.620290
  C     -7.746850   21.058140  -28.944340
  C     -6.083440   20.772650  -28.890760
  C     -5.633930   19.317620  -28.184600
  H     -4.490180   19.177250  -28.297600
  H     -6.183430   18.444160  -28.705700
  H     -5.910130   19.339890  -27.060640
  H     -5.691240   20.774200  -29.976420
  H     -5.585540   21.632040  -28.305290
  H     -8.000320   21.340460  -30.039670
  H     -7.938340   21.992160  -28.283430
  H      9.642970  -14.689440   26.811460
  H     10.137580  -13.732570   31.308720
  H    -10.215060   14.439820  -33.031800
  H    -12.948310   17.626160  -31.092170

----------------------------
CARTESIAN COORDINATES (A.U.)
----------------------------
  NO LB      ZA    FRAG    MASS        X           Y           Z
   0 C     4.0000    0    12.011         18.445578998682659        -27.807093293515148         52.656387242216752
   1 C     4.0000    0    12.011         18.635968906675224        -29.943863324923925         54.190674787608749
   2 C     4.0000    0    12.011         18.925191491471871        -29.392157780125615         56.819775168688039
   3 C     4.0000    0    12.011         18.963363959377080        -26.806672278217238         57.364261959654769
   4 S     6.0000    0    32.060         18.641808160429040        -25.359727874735075         54.602937440985016
   5 H     1.0000    0     1.008         19.394618360399249        -31.785741593134290         53.318074848009282
   6 C     4.0000    0    12.011         19.074026321779513        -31.970405630941073         58.481052310279551
   7 C     4.0000    0    12.011         16.549446693167415        -33.825776543747644         57.343852917408420
   8 C     4.0000    0    12.011         15.126577400631408        -36.734065063852441         57.627217351189913
   9 H     1.0000    0     1.008         12.979017032997941        -36.384919263349154         57.780889880400380
  10 H     1.0000    0     1.008         15.853555044350914        -37.638280121672423         59.469114516661612
  11 H     1.0000    0     1.008         16.988033231589199        -33.951386639869384         55.212752064401407
  12 H     1.0000    0     1.008         14.869517954634100        -32.458616377639629         57.665616586231188
  13 H     1.0000    0     1.008         18.753018543410306        -31.588076239526124         60.598169189895536
  14 H     1.0000    0     1.008         20.938921454301035        -33.043788972269688         58.149254195685657
  15 C     4.0000    0    12.011         15.686786713032363        -38.617706279622467         55.238263367209342
  16 C     4.0000    0    12.011         13.684943127585564        -41.101505618264547         54.933734000727931
  17 C     4.0000    0    12.011         14.521052455539021        -43.735575979076039         56.488033745878163
  18 H     1.0000    0     1.008         16.540281521417896        -44.323998902656434         55.890237780673509
  19 H     1.0000    0     1.008         13.114718266674826        -45.339216473582951         56.000068663577011
  20 H     1.0000    0     1.008         14.471617219875641        -43.347218361293884         58.639675921960901
  21 H     1.0000    0     1.008         13.555855935377403        -41.590528947200681         52.812043983867845
  22 H     1.0000    0     1.008         11.722594818337718        -40.480995144930162         55.646633184749717
  23 H     1.0000    0     1.008         17.711061347688808        -39.419479283722580         55.410946541327064
  24 H     1.0000    0     1.008         15.541353389765785        -37.488254763900414         53.370250186566842
  25 C     4.0000    0    12.011        -20.124336107012944         28.728618242721844        -61.297840290979892
  26 C     4.0000    0    12.011        -19.025592640967108         29.979257895412271        -59.252173956487454
  27 C     4.0000    0    12.011        -20.617119990955587         31.842508966197283        -58.113973008765349
  28 C     4.0000    0    12.011        -22.984549994270793         32.064249430751602        -59.266668155934632
  29 S     6.0000    0    32.060        -22.984001973691957         29.972719442988900        -61.600650006679423
  30 H     1.0000    0     1.008        -17.027056076254670         29.580979215427025        -58.540351916361999
  31 C     4.0000    0    12.011        -19.829519932859888         33.607513175279735        -55.740647059912305
  32 C     4.0000    0    12.011        -17.345304854468349         35.584828115508238        -56.182975256079253
  33 C     4.0000    0    12.011        -16.560803947232280         37.560650172090938        -53.780736497377220
  34 H     1.0000    0     1.008        -18.410713551511812         38.463410140787801        -53.043799996931945
  35 H     1.0000    0     1.008        -15.673577527356255         36.380761865854531        -52.177965276891911
  36 H     1.0000    0     1.008        -15.598801064236991         34.372096369064273        -56.639325220159897
  37 H     1.0000    0     1.008        -17.846875964933727         36.829704103490194        -57.900320572064210
  38 H     1.0000    0     1.008        -21.514739904568181         34.784018871736428        -54.979881112918292
  39 H     1.0000    0     1.008        -19.202811157806245         32.279678210018623        -54.084509973405062
  40 C     4.0000    0    12.011        -14.639424900567850         39.794117489772468        -54.696875727102245
  41 C     4.0000    0    12.011        -11.496035552141899         39.254619575799289        -54.595624200846743
  42 C     4.0000    0    12.011        -10.646584757682959         36.505011359159852        -53.261175194116909
  43 H     1.0000    0     1.008         -8.485210492010525         36.239750501741327        -53.474714247250013
  44 H     1.0000    0     1.008        -11.684989268272686         34.854411170224992        -54.245911482503274
  45 H     1.0000    0     1.008        -11.168527115872006         36.547095560162276        -51.137198608634776
  46 H     1.0000    0     1.008        -10.754884962417984         39.257548651306870        -56.647224275399687
  47 H     1.0000    0     1.008        -10.555140910062509         40.878631318029875        -53.489246241219867
  48 H     1.0000    0     1.008        -15.118413783732869         40.327624971901116        -56.766749453370210
  49 H     1.0000    0     1.008        -15.001288557952430         41.559159493377592        -53.447936827932345
  50 H     1.0000    0     1.008         18.222572417618611        -27.759018660668190         50.666316650584285
  51 H     1.0000    0     1.008         19.157249860717403        -25.950796414902964         59.164906403622972
  52 H     1.0000    0     1.008        -19.303665841573618         27.287305223118768        -62.421055710459996
  53 H     1.0000    0     1.008        -24.468759797113879         33.308615192677408        -58.755686209322320

--------------------------------
INTERNAL COORDINATES (ANGSTROEM)
--------------------------------
 C      0   0   0   0.000000     0.000     0.000
 C      1   0   0   1.395671     0.000     0.000
 C      2   1   0   1.429777   114.102     0.000
 C      3   2   1   1.398336   113.693     0.000
 S      1   2   3   1.658037   105.479     0.000
 H      2   1   3   1.150823   118.550   205.914
 C      3   2   1   1.624958   111.111   178.815
 C      7   3   2   1.763766   104.246   312.889
 C      8   7   3   1.719866   143.128   176.369
 H      9   8   7   1.154229   107.095   133.871
 H      9   8   7   1.151941   107.413    16.191
 H      8   7   3   1.153282   102.315    56.449
 H      8   7   3   1.158743   100.569   303.584
 H      7   3   2   1.151055   111.829   195.806
 H      7   3   2   1.152110   111.902    70.311
 C      9   8   7   1.636950   113.470   254.544
 C     16   9   8   1.695794   115.609   198.012
 C     17  16   9   1.677855   115.632   270.841
 H     18  17  16   1.157059   109.455   304.901
 H     18  17  16   1.157864   109.272   184.882
 H     18  17  16   1.157294   109.196    65.044
 H     17  16   9   1.154210   107.649   150.240
 H     17  16   9   1.152595   108.113    32.384
 H     16   9   8   1.155783   109.288    76.512
 H     16   9   8   1.157712   109.451   317.722
 C      1   2   3  70.341747   149.795   202.108
 C     26   1   2   1.395673    54.259   176.778
 C     27  26   1   1.429774   114.102   242.544
 C     28  27  26   1.398330   113.693     0.000
 S     26   1   2   1.658037   121.101    89.651
 H     27  26   1   1.142271   123.641    63.053
 C     28  27  26   1.619683   124.942   180.884
 C     32  28  27   1.696403   116.622    61.837
 C     33  32  28   1.697502   117.782   177.118
 H     34  33  32   1.156978   107.446   314.088
 H     34  33  32   1.153094   108.475    71.400
 H     33  32  28   1.150793   107.899   299.225
 H     33  32  28   1.153384   106.420    56.964
 H     32  28  27   1.159719   112.388   187.620
 H     32  28  27   1.171228   107.885   304.440
 C     34  33  32   1.632697   112.074   194.183
 C     41  34  33   1.688582   118.793   271.444
 C     42  41  34   1.678640   115.068   354.151
 H     43  42  41   1.157859   109.181   174.296
 H     43  42  41   1.156040   109.755    54.255
 H     43  42  41   1.157613   109.140   293.878
 H     42  41  34   1.154331   107.736   114.421
 H     42  41  34   1.152923   108.392   232.541
 H     41  34  33   1.159181   108.706    33.539
 H     41  34  33   1.160114   108.111   150.334
 H      1   2   3   1.059997   127.260   180.000
 H      4   3   2   1.059998   127.206   180.000
 H     26   1   2   1.060006    93.198   311.759
 H     29  28  27   1.059997   127.206   180.000

---------------------------
INTERNAL COORDINATES (A.U.)
---------------------------
 C      0   0   0   0.000000     0.000     0.000
 C      1   0   0   2.637437     0.000     0.000
 C      2   1   0   2.701888   114.102     0.000
 C      3   2   1   2.642472   113.693     0.000
 S      1   2   3   3.133235   105.479     0.000
 H      2   1   3   2.174740   118.550   205.914
 C      3   2   1   3.070726   111.111   178.815
 C      7   3   2   3.333036   104.246   312.889
 C      8   7   3   3.250076   143.128   176.369
 H      9   8   7   2.181177   107.095   133.871
 H      9   8   7   2.176852   107.413    16.191
 H      8   7   3   2.179387   102.315    56.449
 H      8   7   3   2.189708   100.569   303.584
 H      7   3   2   2.175179   111.829   195.806
 H      7   3   2   2.177171   111.902    70.311
 C      9   8   7   3.093386   113.470   254.544
 C     16   9   8   3.204587   115.609   198.012
 C     17  16   9   3.170687   115.632   270.841
 H     18  17  16   2.186524   109.455   304.901
 H     18  17  16   2.188047   109.272   184.882
 H     18  17  16   2.186968   109.196    65.044
 H     17  16   9   2.181141   107.649   150.240
 H     17  16   9   2.178088   108.113    32.384
 H     16   9   8   2.184112   109.288    76.512
 H     16   9   8   2.187758   109.451   317.722
 C      1   2   3 132.926638   149.795   202.108
 C     26   1   2   2.637440    54.259   176.778
 C     27  26   1   2.701882   114.102   242.544
 C     28  27  26   2.642461   113.693     0.000
 S     26   1   2   3.133236   121.101    89.651
 H     27  26   1   2.158579   123.641    63.053
 C     28  27  26   3.060756   124.942   180.884
 C     32  28  27   3.205738   116.622    61.837
 C     33  32  28   3.207813   117.782   177.118
 H     34  33  32   2.186371   107.446   314.088
 H     34  33  32   2.179033   108.475    71.400
 H     33  32  28   2.174684   107.899   299.225
 H     33  32  28   2.179579   106.420    56.964
 H     32  28  27   2.191551   112.388   187.620
 H     32  28  27   2.213301   107.885   304.440
 C     34  33  32   3.085350   112.074   194.183
 C     41  34  33   3.190957   118.793   271.444
 C     42  41  34   3.172171   115.068   354.151
 H     43  42  41   2.188036   109.181   174.296
 H     43  42  41   2.184598   109.755    54.255
 H     43  42  41   2.187572   109.140   293.878
 H     42  41  34   2.181370   107.736   114.421
 H     42  41  34   2.178708   108.392   232.541
 H     41  34  33   2.190534   108.706    33.539
 H     41  34  33   2.192297   108.111   150.334
 H      1   2   3   2.003104   127.260   180.000
 H      4   3   2   2.003106   127.206   180.000
 H     26   1   2   2.003122    93.198   311.759
 H     29  28  27   2.003104   127.206   180.000

----------------------------
SLATER BASIS SET DIM= 120
----------------------------
  0 C     2 shells
 l=0 nsto= 1
    2       1.625000000000        1.000000000000
 l=1 nsto= 1
    2       1.625000000000        1.000000000000
  1 C     2 shells
 l=0 nsto= 1
    2       1.625000000000        1.000000000000
 l=1 nsto= 1
    2       1.625000000000        1.000000000000
  2 C     2 shells
 l=0 nsto= 1
    2       1.625000000000        1.000000000000
 l=1 nsto= 1
    2       1.625000000000        1.000000000000
  3 C     2 shells
 l=0 nsto= 1
    2       1.625000000000        1.000000000000
 l=1 nsto= 1
    2       1.625000000000        1.000000000000
  4 S     2 shells
 l=0 nsto= 1
    3       1.925000000000        1.000000000000
 l=1 nsto= 1
    3       1.925000000000        1.000000000000
  5 H     1 shells
 l=0 nsto= 1
    1       1.200000000000        1.000000000000
  6 C     2 shells
 l=0 nsto= 1
    2       1.625000000000        1.000000000000
 l=1 nsto= 1
    2       1.625000000000        1.000000000000
  7 C     2 shells
 l=0 nsto= 1
    2       1.625000000000        1.000000000000
 l=1 nsto= 1
    2       1.625000000000        1.000000000000
  8 C     2 shells
 l=0 nsto= 1
    2       1.625000000000        1.000000000000
 l=1 nsto= 1
    2       1.625000000000        1.000000000000
  9 H     1 shells
 l=0 nsto= 1
    1       1.200000000000        1.000000000000
 10 H     1 shells
 l=0 nsto= 1
    1       1.200000000000        1.000000000000
 11 H     1 shells
 l=0 nsto= 1
    1       1.200000000000        1.000000000000
 12 H     1 shells
 l=0 nsto= 1
    1       1.200000000000        1.000000000000
 13 H     1 shells
 l=0 nsto= 1
    1       1.200000000000        1.000000000000
 14 H     1 shells
 l=0 nsto= 1
    1       1.200000000000        1.000000000000
 15 C     2 shells
 l=0 nsto= 1
    2       1.625000000000        1.000000000000
 l=1 nsto= 1
    2       1.625000000000        1.000000000000
 16 C     2 shells
 l=0 nsto= 1
    2       1.625000000000        1.000000000000
 l=1 nsto= 1
    2       1.625000000000        1.000000000000
 17 C     2 shells
 l=0 nsto= 1
    2       1.625000000000        1.000000000000
 l=1 nsto= 1
    2       1.625000000000        1.000000000000
 18 H     1 shells
 l=0 nsto= 1
    1       1.200000000000        1.000000000000
 19 H     1 shells
 l=0 nsto= 1
    1       1.200000000000        1.000000000000
 20 H     1 shells
 l=0 nsto= 1
    1       1.200000000000        1.000000000000
 21 H     1 shells
 l=0 nsto= 1
    1       1.200000000000        1.000000000000
 22 H     1 shells
 l=0 nsto= 1
    1       1.200000000000        1.000000000000
 23 H     1 shells
 l=0 nsto= 1
    1       1.200000000000        1.000000000000
 24 H     1 shells
 l=0 nsto= 1
    1       1.200000000000        1.000000000000
 25 C     2 shells
 l=0 nsto= 1
    2       1.625000000000        1.000000000000
 l=1 nsto= 1
    2       1.625000000000        1.000000000000
 26 C     2 shells
 l=0 nsto= 1
    2       1.625000000000        1.000000000000
 l=1 nsto= 1
    2       1.625000000000        1.000000000000
 27 C     2 shells
 l=0 nsto= 1
    2       1.625000000000        1.000000000000
 l=1 nsto= 1
    2       1.625000000000        1.000000000000
 28 C     2 shells
 l=0 nsto= 1
    2       1.625000000000        1.000000000000
 l=1 nsto= 1
    2       1.625000000000        1.000000000000
 29 S     2 shells
 l=0 nsto= 1
    3       1.925000000000        1.000000000000
 l=1 nsto= 1
    3       1.925000000000        1.000000000000
 30 H     1 shells
 l=0 nsto= 1
    1       1.200000000000        1.000000000000
 31 C     2 shells
 l=0 nsto= 1
    2       1.625000000000        1.000000000000
 l=1 nsto= 1
    2       1.625000000000        1.000000000000
 32 C     2 shells
 l=0 nsto= 1
    2       1.625000000000        1.000000000000
 l=1 nsto= 1
    2       1.625000000000        1.000000000000
 33 C     2 shells
 l=0 nsto= 1
    2       1.625000000000        1.000000000000
 l=1 nsto= 1
    2       1.625000000000        1.000000000000
 34 H     1 shells
 l=0 nsto= 1
    1       1.200000000000        1.000000000000
 35 H     1 shells
 l=0 nsto= 1
    1       1.200000000000        1.000000000000
 36 H     1 shells
 l=0 nsto= 1
    1       1.200000000000        1.000000000000
 37 H     1 shells
 l=0 nsto= 1
    1       1.200000000000        1.000000000000
 38 H     1 shells
 l=0 nsto= 1
    1       1.200000000000        1.000000000000
 39 H     1 shells
 l=0 nsto= 1
    1       1.200000000000        1.000000000000
 40 C     2 shells
 l=0 nsto= 1
    2       1.625000000000        1.000000000000
 l=1 nsto= 1
    2       1.625000000000        1.000000000000
 41 C     2 shells
 l=0 nsto= 1
    2       1.625000000000        1.000000000000
 l=1 nsto= 1
    2       1.625000000000        1.000000000000
 42 C     2 shells
 l=0 nsto= 1
    2       1.625000000000        1.000000000000
 l=1 nsto= 1
    2       1.625000000000        1.000000000000
 43 H     1 shells
 l=0 nsto= 1
    1       1.200000000000        1.000000000000
 44 H     1 shells
 l=0 nsto= 1
    1       1.200000000000        1.000000000000
 45 H     1 shells
 l=0 nsto= 1
    1       1.200000000000        1.000000000000
 46 H     1 shells
 l=0 nsto= 1
    1       1.200000000000        1.000000000000
 47 H     1 shells
 l=0 nsto= 1
    1       1.200000000000        1.000000000000
 48 H     1 shells
 l=0 nsto= 1
    1       1.200000000000        1.000000000000
 49 H     1 shells
 l=0 nsto= 1
    1       1.200000000000        1.000000000000
 50 H     1 shells
 l=0 nsto= 1
    1       1.200000000000        1.000000000000
 51 H     1 shells
 l=0 nsto= 1
    1       1.200000000000        1.000000000000
 52 H     1 shells
 l=0 nsto= 1
    1       1.200000000000        1.000000000000
 53 H     1 shells
 l=0 nsto= 1
    1       1.200000000000        1.000000000000
------------------------------------------------------------------------------
                           ORCA NDO INTEGRAL CALCULATION
------------------------------------------------------------------------------

--------------
NDO PARAMETERS
--------------

Gamma integral treatment              ... Mataga-Nishimoto
Nuclear repulsuion treatment          ... Direct (ZA*ZB/RAB)
Interaction factors:
s-s (sigma) =    1.0000
s-p (sigma) =    1.0000
s-d (sigma) =    1.0000
p-p (sigma) =    1.2670  p-p(pi) =    0.5850
p-d (sigma) =    1.0000  p-d(pi) =    1.0000
d-d (sigma) =    1.0000  d-d(pi) =    1.0000 d-d (delta) =    1.0000

fGamma parameter for Mataga-Nishimoto gamma integrals:    1.2000

--------------------------
Parameters for Element H :
--------------------------
 One-electron parameters (in eV)
  U(s)  =   -13.060000 Beta(s) =    12.000000 Neff(s) =     1.000000
 One-center electron repulsion parameters (in eV)
  G(s,s)=    12.850000
--------------------------
Parameters for Element C :
--------------------------
 One-electron parameters (in eV)
  U(s)  =   -50.870766 Beta(s) =    17.000000 Neff(s) =     2.000000
  U(p)  =   -41.599980 Beta(p) =    17.000000 Neff(p) =     2.000000 
 One-center electron repulsion parameters (in eV)
  G(s,s)=    11.110000
  G(s,p)=    11.110000 G(p,p)  =    11.110000
 Slater-Condon parameters (in eV)
 F2(p,p)=     4.5098 G1(s,p)=    6.8977
--------------------------
Parameters for Element S :
--------------------------
 One-electron parameters (in eV)
  U(s)  =   -69.509597 Beta(s) =    15.000000 Neff(s) =     2.000000
  U(p)  =   -60.725746 Beta(p) =    15.000000 Neff(p) =     4.000000 
 One-center electron repulsion parameters (in eV)
  G(s,s)=    10.090000
  G(s,p)=    10.090000 G(p,p)  =    10.090000
 Slater-Condon parameters (in eV)
 F2(p,p)=     4.5377 G1(s,p)=    3.0756

 Number of atoms                    ....   54
 Number of basis functions          ....  120

 Overlap integrals                  .... done
 One electron matrix                .... done
 Nuclear repulsion                  .... done
 Integral list                      .... done
 Electron-electron repulsion        .... done
-------------------------------------------------------------------------------
                                 ORCA SCF
-------------------------------------------------------------------------------

------------
SCF SETTINGS
------------
Hamiltonian:
 ZDO-Hamiltonian        Method          .... INDO


General Settings:
 Integral files         IntName         .... /Users/mattyjones/GoogleDrive/Boise/Code/MorphCT/tests/output_EZ/donor_polymer/chromophores/input_orca/pair/00015-00026
 Hartree-Fock type      HFTyp           .... RHF
 Total Charge           Charge          ....    0
 Multiplicity           Mult            ....    1
 Number of Electrons    NEL             ....  124
 Basis Dimension        Dim             ....  120
 Nuclear Repulsion      ENuc            ....    615.8483761778 Eh

Convergence Acceleration:
 DIIS                   CNVDIIS         .... on
   Start iteration      DIISMaxIt       ....    12
   Startup error        DIISStart       ....  0.200000
   # of expansion vecs  DIISMaxEq       ....     5
   Bias factor          DIISBfac        ....   1.050
   Max. coefficient     DIISMaxC        ....  10.000
 Newton-Raphson         CNVNR           .... off
 SOSCF                  CNVSOSCF        .... on
   Start iteration      SOSCFMaxIt      ....   150
   Startup grad/error   SOSCFStart      ....  0.003300
 Level Shifting         CNVShift        .... on
   Level shift para.    LevelShift      ....    0.2500
   Turn off err/grad.   ShiftErr        ....    0.0010
 Zerner damping         CNVZerner       .... off
 Static damping         CNVDamp         .... on
   Fraction old density DampFac         ....    0.7000
   Max. Damping (<1)    DampMax         ....    0.9800
   Min. Damping (>=0)   DampMin         ....    0.0000
   Turn off err/grad.   DampErr         ....    0.1000
 Fernandez-Rico         CNVRico         .... off

SCF Procedure:
 Maximum # iterations   MaxIter         ....   125
 SCF integral mode      SCFMode         .... Conventional
 Integral Buffer length BufferLength    .... 1048576
 Integral index format  IndFormat       ....     0
 Integral value format  ValFormat       ....     0
 Integral Storage       Thresh          ....  1.000e-08 Eh

Convergence Tolerance:
 Convergence Check Mode ConvCheckMode   .... Total+1el-Energy
 Energy Change          TolE            ....  1.000e-06 Eh
 1-El. energy change                    ....  1.000e-03 Eh
 Orbital Gradient       TolG            ....  5.000e-05
 Orbital Rotation angle TolX            ....  5.000e-05
 DIIS Error             TolErr          ....  1.000e-06


Diagonalization of the overlap matrix:
Smallest eigenvalue                        ... 1.693e-01
Time for diagonalization                   ...    0.003 sec
Threshold for overlap eigenvalues          ... 1.000e-08
Number of eigenvalues below threshold      ... 0
Time for construction of square roots      ...    0.001 sec
Total time needed                          ...    0.004 sec

-------------------------------
INITIAL GUESS: EXTENDED HUECKEL
-------------------------------
EHT matrix was read from disk
EHT matrix was diagonalized
Initial density was built
                      ------------------
                      INITIAL GUESS DONE
                      ------------------

 InCore treatment chosen:
   Memory dedicated               ...    1024 MB
   Memory needed                  ...      0 MB
   Number of tiny    integrals    ...       0
   Number of small   integrals    ...       0
   Number of regular integrals    ...    7392

--------------
SCF ITERATIONS
--------------
ITER       Energy         Delta-E        Max-DP      RMS-DP      [F,P]     Damp
  0    -18.4325816172   0.000000000000 0.04589739  0.00144590  0.0997733 0.7000
  1    -18.4745139320  -0.041932314790 0.04550418  0.00136380  0.0712286 0.7000
                               ***Turning on DIIS***
  2    -18.5055408547  -0.031026922752 0.12220100  0.00350662  0.0516043 0.0000
  3    -18.5861333703  -0.080592515593 0.02432337  0.00073796  0.0201868 0.0000
  4    -18.5711370909   0.014996279425 0.01715305  0.00050671  0.0091505 0.0000
  5    -18.5887039191  -0.017566828209 0.01206572  0.00034192  0.0054839 0.0000
  6    -18.5913014689  -0.002597549842 0.00851860  0.00024375  0.0032108 0.0000
                      *** Initiating the SOSCF procedure ***
                           *** Shutting down DIIS ***
                      *** Re-Reading the Fockian *** 
                      *** Removing any level shift *** 
ITER      Energy       Delta-E        Grad      Rot      Max-DP    RMS-DP
  7    -18.58731054   0.0039909300  0.003042  0.003042  0.005186  0.000139
  8    -18.58518931   0.0021212321  0.000866  0.002453  0.002640  0.000065
  9    -18.58520485  -0.0000155390  0.000379  0.002414  0.003043  0.000070
 10    -18.58521062  -0.0000057763  0.000043  0.000110  0.000250  0.000005
                 **** Energy Check signals convergence ****
              ***Rediagonalizing the Fockian in SOSCF/NRSCF***

               *****************************************************
               *                     SUCCESS                       *
               *           SCF CONVERGED AFTER  11 CYCLES          *
               *****************************************************


----------------
TOTAL SCF ENERGY
----------------

Total Energy       :          -18.58521069 Eh            -505.72929 eV

Components:
Nuclear Repulsion  :          615.84837618 Eh           16758.08628 eV
Electronic Energy  :         -634.43358687 Eh          -17263.81557 eV

One Electron Energy:        -1178.52989193 Eh          -32069.42874 eV
Two Electron Energy:          544.09630506 Eh           14805.61316 eV


---------------
SCF CONVERGENCE
---------------

  Last Energy change         ...   -6.7670e-08  Tolerance :   1.0000e-06
  Last MAX-Density change    ...    1.1769e-04  Tolerance :   1.0000e-05
  Last RMS-Density change    ...    1.8975e-06  Tolerance :   1.0000e-06
  Last Orbital Gradient      ...    1.7219e-05  Tolerance :   5.0000e-05
  Last Orbital Rotation      ...    3.7655e-05  Tolerance :   5.0000e-05

             **** THE GBW FILE WAS UPDATED (/Users/mattyjones/GoogleDrive/Boise/Code/MorphCT/tests/output_EZ/donor_polymer/chromophores/input_orca/pair/00015-00026.gbw) ****
             **** DENSITY FILE WAS UPDATED (/Users/mattyjones/GoogleDrive/Boise/Code/MorphCT/tests/output_EZ/donor_polymer/chromophores/input_orca/pair/00015-00026.scfp.tmp) ****
             **** ENERGY FILE WAS UPDATED (/Users/mattyjones/GoogleDrive/Boise/Code/MorphCT/tests/output_EZ/donor_polymer/chromophores/input_orca/pair/00015-00026.en.tmp) ****
----------------
ORBITAL ENERGIES
----------------

  NO   OCC          E(Eh)            E(eV) 
   0   2.0000      -1.566278       -42.6206 
   1   2.0000      -1.556187       -42.3460 
   2   2.0000      -1.409600       -38.3572 
   3   2.0000      -1.393020       -37.9060 
   4   2.0000      -1.292164       -35.1616 
   5   2.0000      -1.285363       -34.9765 
   6   2.0000      -1.189153       -32.3585 
   7   2.0000      -1.174553       -31.9612 
   8   2.0000      -1.121136       -30.5077 
   9   2.0000      -1.112289       -30.2669 
  10   2.0000      -1.045977       -28.4625 
  11   2.0000      -1.025613       -27.9084 
  12   2.0000      -0.965355       -26.2687 
  13   2.0000      -0.946859       -25.7654 
  14   2.0000      -0.910521       -24.7765 
  15   2.0000      -0.893704       -24.3189 
  16   2.0000      -0.865093       -23.5404 
  17   2.0000      -0.837981       -22.8026 
  18   2.0000      -0.835513       -22.7355 
  19   2.0000      -0.828532       -22.5455 
  20   2.0000      -0.776800       -21.1378 
  21   2.0000      -0.772742       -21.0274 
  22   2.0000      -0.732475       -19.9317 
  23   2.0000      -0.728607       -19.8264 
  24   2.0000      -0.701433       -19.0870 
  25   2.0000      -0.693602       -18.8739 
  26   2.0000      -0.688901       -18.7459 
  27   2.0000      -0.675055       -18.3692 
  28   2.0000      -0.658200       -17.9105 
  29   2.0000      -0.633222       -17.2309 
  30   2.0000      -0.613076       -16.6826 
  31   2.0000      -0.611541       -16.6409 
  32   2.0000      -0.599773       -16.3207 
  33   2.0000      -0.589743       -16.0477 
  34   2.0000      -0.577439       -15.7129 
  35   2.0000      -0.575759       -15.6672 
  36   2.0000      -0.574672       -15.6376 
  37   2.0000      -0.559326       -15.2200 
  38   2.0000      -0.555724       -15.1220 
  39   2.0000      -0.544230       -14.8092 
  40   2.0000      -0.531653       -14.4670 
  41   2.0000      -0.529483       -14.4080 
  42   2.0000      -0.521062       -14.1788 
  43   2.0000      -0.513741       -13.9796 
  44   2.0000      -0.504302       -13.7227 
  45   2.0000      -0.499142       -13.5823 
  46   2.0000      -0.497625       -13.5411 
  47   2.0000      -0.489649       -13.3240 
  48   2.0000      -0.488120       -13.2824 
  49   2.0000      -0.483315       -13.1517 
  50   2.0000      -0.481571       -13.1042 
  51   2.0000      -0.479824       -13.0567 
  52   2.0000      -0.472777       -12.8649 
  53   2.0000      -0.467632       -12.7249 
  54   2.0000      -0.464263       -12.6333 
  55   2.0000      -0.449429       -12.2296 
  56   2.0000      -0.437799       -11.9131 
  57   2.0000      -0.426840       -11.6149 
  58   2.0000      -0.356899        -9.7117 
  59   2.0000      -0.346550        -9.4301 
  60   2.0000      -0.305080        -8.3017 
  61   2.0000      -0.304708        -8.2915 
  62   0.0000       0.006534         0.1778 
  63   0.0000       0.007911         0.2153 
  64   0.0000       0.055853         1.5198 
  65   0.0000       0.066126         1.7994 
  66   0.0000       0.068072         1.8523 
  67   0.0000       0.078052         2.1239 
  68   0.0000       0.089518         2.4359 
  69   0.0000       0.090159         2.4533 
  70   0.0000       0.103622         2.8197 
  71   0.0000       0.104220         2.8360 
  72   0.0000       0.107877         2.9355 
  73   0.0000       0.108564         2.9542 
  74   0.0000       0.121915         3.3175 
  75   0.0000       0.123764         3.3678 
  76   0.0000       0.141900         3.8613 
  77   0.0000       0.143283         3.8989 
  78   0.0000       0.156849         4.2681 
  79   0.0000       0.158729         4.3192 
  80   0.0000       0.164014         4.4631 
  81   0.0000       0.168225         4.5776 
  82   0.0000       0.169924         4.6239 
  83   0.0000       0.175255         4.7689 
  84   0.0000       0.200329         5.4512 
  85   0.0000       0.205491         5.5917 
  86   0.0000       0.224485         6.1085 
  87   0.0000       0.233117         6.3434 
  88   0.0000       0.234171         6.3721 
  89   0.0000       0.235285         6.4024 
  90   0.0000       0.236816         6.4441 
  91   0.0000       0.238807         6.4983 
  92   0.0000       0.238977         6.5029 
  93   0.0000       0.239411         6.5147 
  94   0.0000       0.240226         6.5369 
  95   0.0000       0.241926         6.5831 
  96   0.0000       0.242077         6.5873 
  97   0.0000       0.243331         6.6214 
  98   0.0000       0.243776         6.6335 
  99   0.0000       0.244393         6.6503 
 100   0.0000       0.250173         6.8076 
 101   0.0000       0.256033         6.9670 
 102   0.0000       0.258503         7.0342 
 103   0.0000       0.260334         7.0841 
 104   0.0000       0.267095         7.2680 
 105   0.0000       0.267176         7.2702 
 106   0.0000       0.283667         7.7190 
 107   0.0000       0.286766         7.8033 
 108   0.0000       0.304952         8.2982 
 109   0.0000       0.309673         8.4266 
 110   0.0000       0.310400         8.4464 
 111   0.0000       0.312267         8.4972 
 112   0.0000       0.332461         9.0467 
 113   0.0000       0.339418         9.2360 
 114   0.0000       0.351977         9.5778 
 115   0.0000       0.353691         9.6244 
 116   0.0000       0.409279        11.1370 
 117   0.0000       0.421576        11.4717 
 118   0.0000       0.422838        11.5060 
 119   0.0000       0.431071        11.7300 
-------
TIMINGS
-------

Total SCF time: 0 days 0 hours 0 min 0 sec 

Total time                  ....       0.164 sec
Sum of individual times     ....       0.120 sec  ( 73.4%)

Fock matrix formation       ....       0.048 sec  ( 29.3%)
Diagonalization             ....       0.025 sec  ( 15.1%)
Density matrix formation    ....       0.005 sec  (  3.2%)
Population analysis         ....       0.000 sec  (  0.0%)
Initial guess               ....       0.003 sec  (  1.8%)
Orbital Transformation      ....       0.000 sec  (  0.0%)
Orbital Orthonormalization  ....       0.000 sec  (  0.0%)
DIIS solution               ....       0.033 sec  ( 20.4%)
SOSCF solution              ....       0.006 sec  (  3.6%)

-------------------------   --------------------
FINAL SINGLE POINT ENERGY       -18.585210689860
-------------------------   --------------------


                            ***************************************
                            *     ORCA property calculations      *
                            ***************************************

                                    ---------------------
                                    Active property flags
                                    ---------------------
   (+) Dipole Moment


------------------------------------------------------------------------------
                       ORCA ELECTRIC PROPERTIES CALCULATION
------------------------------------------------------------------------------

Dipole Moment Calculation                       ... on
Quadrupole Moment Calculation                   ... off
Polarizability Calculation                      ... off
GBWName                                         ... /Users/mattyjones/GoogleDrive/Boise/Code/MorphCT/tests/output_EZ/donor_polymer/chromophores/input_orca/pair/00015-00026.gbw
Electron density file                           ... /Users/mattyjones/GoogleDrive/Boise/Code/MorphCT/tests/output_EZ/donor_polymer/chromophores/input_orca/pair/00015-00026.scfp.tmp

-------------
DIPOLE MOMENT
-------------
                                X             Y             Z
Electronic contribution:    -56.36338      59.07932     -83.72286
Nuclear contribution   :     31.81275     -34.95781      50.37592
                        -----------------------------------------
Total Dipole Moment    :    -24.55063      24.12150     -33.34694
                        -----------------------------------------
Magnitude (a.u.)       :     47.92284
Magnitude (Debye)      :    121.81018


Timings for individual modules:

Sum of individual times         ...        0.237 sec (=   0.004 min)
STO integral calculation        ...        0.039 sec (=   0.001 min)  16.3 %
SCF iterations                  ...        0.198 sec (=   0.003 min)  83.7 %
                             ****ORCA TERMINATED NORMALLY****
TOTAL RUN TIME: 0 days 0 hours 0 minutes 0 seconds 529 msec

