
                                 *****************
                                 * O   R   C   A *
                                 *****************

           --- An Ab Initio, DFT and Semiempirical electronic structure package ---

                  #######################################################
                  #                        -***-                        #
                  #  Department of molecular theory and spectroscopy    #
                  #              Directorship: Frank Neese              #
                  # Max Planck Institute for Chemical Energy Conversion #
                  #                  D-45470 Muelheim/Ruhr              #
                  #                       Germany                       #
                  #                                                     #
                  #                  All rights reserved                #
                  #                        -***-                        #
                  #######################################################


                         Program Version 3.0.3 - RELEASE   -


 With contributions from (in alphabetic order):
   Ute Becker             : Parallelization
   Dmytro Bykov           : SCF Hessian
   Dmitry Ganyushin       : Spin-Orbit,Spin-Spin,Magnetic field MRCI
   Andreas Hansen         : Spin unrestricted coupled pair/coupled cluster methods
   Dimitrios Liakos       : Extrapolation schemes; parallel MDCI
   Robert Izsak           : Overlap fitted RIJCOSX, COSX-SCS-MP3
   Christian Kollmar      : KDIIS, OOCD, Brueckner-CCSD(T), CCSD density
   Simone Kossmann        : Meta GGA functionals, TD-DFT gradient, OOMP2, MP2 Hessian
   Taras Petrenko         : DFT Hessian,TD-DFT gradient, ASA and ECA modules, normal mode analysis, Resonance Raman, ABS, FL, XAS/XES, NRVS
   Christoph Reimann      : Effective Core Potentials
   Michael Roemelt        : Restricted open shell CIS
   Christoph Riplinger    : Improved optimizer, TS searches, QM/MM, DLPNO-CCSD
   Barbara Sandhoefer     : DKH picture change effects
   Igor Schapiro          : Molecular dynamics
   Kantharuban Sivalingam : CASSCF convergence, NEVPT2
   Boris Wezisla          : Elementary symmetry handling
   Frank Wennmohs         : Technical directorship


 We gratefully acknowledge several colleagues who have allowed us to
 interface, adapt or use parts of their codes:
   Stefan Grimme, W. Hujo, H. Kruse, T. Risthaus : VdW corrections, initial TS optimization,
                                                   DFT functionals, gCP
   Ed Valeev                                     : LibInt (2-el integral package), F12 methods
   Garnet Chan, S. Sharma, R. Olivares           : DMRG
   Ulf Ekstrom                                   : XCFun DFT Library
   Mihaly Kallay                                 : mrcc  (arbitrary order and MRCC methods)
   Andreas Klamt, Michael Diedenhofen            : otool_cosmo (COSMO solvation model)
   Frank Weinhold                                : gennbo (NPA and NBO analysis)
   Christopher J. Cramer and Donald G. Truhlar   : smd solvation model


 Your calculation uses the libint2 library for the computation of 2-el integrals
 For citations please refer to: http://libint.valeyev.net

 This ORCA versions uses:
   CBLAS   interface :  Fast vector & matrix operations
   LAPACKE interface :  Fast linear algebra routines
   SCALAPACK package :  Parallel linear algebra routines


leaving
================================================================================
                                        WARNINGS
                       Please study these warnings very carefully!
================================================================================
Now building the actual basis set

WARNING: Direct SCF is incompatible with Method<>HF and Method<>DFT
  ===> : conventional SCF is chosen

WARNING: The NDO methods need Guess=HUECKEL or Guess=HCORE or Guess=MOREAD
  ===> : Guess is set to Hueckel

WARNING: The NDO methods need %rel::SOCType==1
  ===> : %rel::SOCType is set to 1

WARNING: The NDO methods cannot have frozencore=1
  ===> : %method FrozenCore=0 end


INFO   : the flag for use of LIBINT has been found!

================================================================================
                                       INPUT FILE
================================================================================
NAME = /Users/mattyjones/GoogleDrive/Boise/Code/MorphCT/tests/output_EZ/donor_polymer/chromophores/input_orca/pair/00010-00012.inp
|  1> # ================================================================
|  2> # Orca input file made by Matty Jones
|  3> # ================================================================
|  4> ! ZINDO/S 
|  5> ! NOPOP
|  6> ! NOMOPRINT
|  7> * xyz 0   1
|  8>  C  0.39156  5.65471  -5.00691
|  9>  C  -0.43139  4.77728  -4.29926
| 10>  C  0.23673  4.06316  -3.25623
| 11>  C  1.59408  4.37829  -3.13968
| 12>  S  1.89197  5.50801  -4.31673
| 13>  H  -1.54976  4.65710  -4.48890
| 14>  C  -0.50842  3.00023  -2.30058
| 15>  C  -1.72389  1.88124  -2.72143
| 16>  C  -2.48927  1.71148  -4.22136
| 17>  H  -2.56795  2.73272  -4.74243
| 18>  H  -1.88547  0.98258  -4.87870
| 19>  H  -1.26615  0.83649  -2.50727
| 20>  H  -2.56253  2.07096  -1.94675
| 21>  H  -0.93804  3.58432  -1.37951
| 22>  H  0.29269  2.25482  -1.90721
| 23>  C  -3.97982  1.11520  -3.90595
| 24>  C  -5.08752  0.94055  -5.16073
| 25>  C  -5.15887  -0.60353  -5.81352
| 26>  H  -6.15935  -0.72514  -6.38405
| 27>  H  -5.10494  -1.38581  -4.96246
| 28>  H  -4.27393  -0.75679  -6.54170
| 29>  H  -4.80367  1.67822  -6.00011
| 30>  H  -6.13326  1.20889  -4.75436
| 31>  H  -3.85295  0.06989  -3.42092
| 32>  H  -4.49035  1.81095  -3.12941
| 33>  C  3.62828  2.16760  1.61453
| 34>  C  3.32852  0.80525  1.56933
| 35>  C  3.62440  0.10190  2.77846
| 36>  C  4.16051  0.91295  3.78350
| 37>  S  4.23912  2.43619  3.13237
| 38>  H  2.89660  0.27570  0.64242
| 39>  C  3.31766  -1.48455  2.87102
| 40>  C  2.96813  -2.37634  4.27978
| 41>  C  1.43471  -2.55459  4.97855
| 42>  H  1.57904  -2.66034  6.12097
| 43>  H  0.83182  -1.59354  4.76579
| 44>  H  3.22705  -3.46975  3.94012
| 45>  H  3.70435  -2.13709  5.10287
| 46>  H  4.24612  -2.03922  2.41270
| 47>  H  2.40996  -1.71793  2.17376
| 48>  C  0.64332  -3.85466  4.40157
| 49>  C  1.02669  -5.33577  5.13028
| 50>  C  0.04214  -5.81676  6.40627
| 51>  H  0.57184  -5.58712  7.40911
| 52>  H  -0.15226  -6.95583  6.32438
| 53>  H  -0.96526  -5.25030  6.35873
| 54>  H  2.10808  -5.26505  5.52474
| 55>  H  0.97264  -6.14876  4.31417
| 56>  H  -0.49479  -3.69227  4.54097
| 57>  H  0.85999  -3.96343  3.27041
| 58>  H  0.11556  6.28252  -5.81518
| 59>  H  2.28746  3.97877  -2.44455
| 60>  H  3.49380  2.88030  0.84150
| 61>  H  4.45500  0.61629  4.75760
| 62> *
| 63> 
| 64>                          ****END OF INPUT****
================================================================================

                       ****************************
                       * Single Point Calculation *
                       ****************************

---------------------------------
CARTESIAN COORDINATES (ANGSTROEM)
---------------------------------
  C      0.391560    5.654710   -5.006910
  C     -0.431390    4.777280   -4.299260
  C      0.236730    4.063160   -3.256230
  C      1.594080    4.378290   -3.139680
  S      1.891970    5.508010   -4.316730
  H     -1.549760    4.657100   -4.488900
  C     -0.508420    3.000230   -2.300580
  C     -1.723890    1.881240   -2.721430
  C     -2.489270    1.711480   -4.221360
  H     -2.567950    2.732720   -4.742430
  H     -1.885470    0.982580   -4.878700
  H     -1.266150    0.836490   -2.507270
  H     -2.562530    2.070960   -1.946750
  H     -0.938040    3.584320   -1.379510
  H      0.292690    2.254820   -1.907210
  C     -3.979820    1.115200   -3.905950
  C     -5.087520    0.940550   -5.160730
  C     -5.158870   -0.603530   -5.813520
  H     -6.159350   -0.725140   -6.384050
  H     -5.104940   -1.385810   -4.962460
  H     -4.273930   -0.756790   -6.541700
  H     -4.803670    1.678220   -6.000110
  H     -6.133260    1.208890   -4.754360
  H     -3.852950    0.069890   -3.420920
  H     -4.490350    1.810950   -3.129410
  C      3.628280    2.167600    1.614530
  C      3.328520    0.805250    1.569330
  C      3.624400    0.101900    2.778460
  C      4.160510    0.912950    3.783500
  S      4.239120    2.436190    3.132370
  H      2.896600    0.275700    0.642420
  C      3.317660   -1.484550    2.871020
  C      2.968130   -2.376340    4.279780
  C      1.434710   -2.554590    4.978550
  H      1.579040   -2.660340    6.120970
  H      0.831820   -1.593540    4.765790
  H      3.227050   -3.469750    3.940120
  H      3.704350   -2.137090    5.102870
  H      4.246120   -2.039220    2.412700
  H      2.409960   -1.717930    2.173760
  C      0.643320   -3.854660    4.401570
  C      1.026690   -5.335770    5.130280
  C      0.042140   -5.816760    6.406270
  H      0.571840   -5.587120    7.409110
  H     -0.152260   -6.955830    6.324380
  H     -0.965260   -5.250300    6.358730
  H      2.108080   -5.265050    5.524740
  H      0.972640   -6.148760    4.314170
  H     -0.494790   -3.692270    4.540970
  H      0.859990   -3.963430    3.270410
  H      0.115560    6.282520   -5.815180
  H      2.287460    3.978770   -2.444550
  H      3.493800    2.880300    0.841500
  H      4.455000    0.616290    4.757600

----------------------------
CARTESIAN COORDINATES (A.U.)
----------------------------
  NO LB      ZA    FRAG    MASS        X           Y           Z
   0 C     4.0000    0    12.011          0.739941164998205         10.685853266745841         -9.461688677191654
   1 C     4.0000    0    12.011         -0.815208956912289          9.027750865059318         -8.124423978522280
   2 C     4.0000    0    12.011          0.447354867683178          7.678259638303473         -6.153382929058397
   3 C     4.0000    0    12.011          3.012374635561189          8.273769034886076         -5.933135348149875
   4 S     6.0000    0    32.060          3.575305153594990         10.408630442899593         -8.157437494081885
   5 H     1.0000    0     1.008         -2.928621973305799          8.800643578284660         -8.482791642559107
   6 C     4.0000    0    12.011         -0.960774561008243          5.669613038774557         -4.347466149176554
   7 C     4.0000    0    12.011         -3.257679985005506          3.555028392178015         -5.142757392637312
   8 C     4.0000    0    12.011         -4.704038573386154          3.234228483683544         -7.977214312689815
   9 H     1.0000    0     1.008         -4.852722225603078          5.164092400689283         -8.961893909292161
  10 H     1.0000    0     1.008         -3.563021933724502          1.856807104668343         -9.219406889561611
  11 H     1.0000    0     1.008         -2.392676744464393          1.580737013763788         -4.738053643796737
  12 H     1.0000    0     1.008         -4.842479909957225          3.913547234305555         -3.678824351211197
  13 H     1.0000    0     1.008         -1.772638702663491          6.773383176336621         -2.606896099005706
  14 H     1.0000    0     1.008          0.553103942137411          4.260992281288317         -3.604104579875950
  15 C     4.0000    0    12.011         -7.520769862302476          2.107422584548980         -7.381175792789713
  16 C     4.0000    0    12.011         -9.614019500847046          1.777381915259633         -9.752366351111421
  17 C     4.0000    0    12.011         -9.748851460502328         -1.140506413605493        -10.985960674073874
  18 H     1.0000    0     1.008        -11.639484662967861         -1.370316008751656        -12.064106125259967
  19 H     1.0000    0     1.008         -9.646938530099954         -2.618801373649410         -9.377690350538854
  20 H     1.0000    0     1.008         -8.076557215550055         -1.430125840890264        -12.362021450272652
  21 H     1.0000    0     1.008         -9.077620737733499          3.171376192469323        -11.338564673402242
  22 H     1.0000    0     1.008        -11.590181708133855          2.284471026036062         -8.984438342069842
  23 H     1.0000    0     1.008         -7.281020307691886          0.132072959499756         -6.464601926053889
  24 H     1.0000    0     1.008         -8.485531745453294          3.422199542224691         -5.913727860754504
  25 C     4.0000    0    12.011          6.856455537183799          4.096170367887705          3.051019534999878
  26 C     4.0000    0    12.011          6.289991231279565          1.521701969340088          2.965603913746638
  27 C     4.0000    0    12.011          6.849123399784185          0.192563093046576          5.250528474054841
  28 C     4.0000    0    12.011          7.862224477440708          1.725225473963407          7.149778827691056
  29 S     6.0000    0    32.060          8.010775848828256          4.603731910197614          5.919321450110911
  30 H     1.0000    0     1.008          5.473780719516297          0.520997495122089          1.213997862953690
  31 C     4.0000    0    12.011          6.269468805465180         -2.805392932112794          5.425441525010593
  32 C     4.0000    0    12.011          5.608952829875685         -4.490631801082427          8.087612113433494
  33 C     4.0000    0    12.011          2.711208981598159         -4.827475484453891          9.408096044033648
  34 H     1.0000    0     1.008          2.983953154507013         -5.027314023116063         11.566956973947963
  35 H     1.0000    0     1.008          1.571911992718376         -3.011354183448871          9.006037911780561
  36 H     1.0000    0     1.008          6.098240720470575         -6.556877253173263          7.445747734785802
  37 H     1.0000    0     1.008          7.000207004191188         -4.038514823541768          9.643026797002738
  38 H     1.0000    0     1.008          8.024003931765705         -3.853567326814895          4.559342243311804
  39 H     1.0000    0     1.008          4.554164393704859         -3.246417217247336          4.107811080872660
  40 C     4.0000    0    12.011          1.215698616474220         -7.284251739380892          8.317761859283765
  41 C     4.0000    0    12.011          1.940162924435610        -10.083144013592998          9.694824190333518
  42 C     4.0000    0    12.011          0.079633059283442        -10.992083386747781         12.106095839955698
  43 H     1.0000    0     1.008          1.080620992421529        -10.558126677354103         14.001188796097285
  44 H     1.0000    0     1.008         -0.287729701150850        -13.144613734113459         11.951346166848884
  45 H     1.0000    0     1.008         -1.824077048028827         -9.921629120926747         12.016258259549081
  46 H     1.0000    0     1.008          3.983693868396712         -9.949502581402085         10.440245561120097
  47 H     1.0000    0     1.008          1.838023226897166        -11.619472463209636          8.152599795179047
  48 H     1.0000    0     1.008         -0.935017593802896         -6.977379112493420          8.581189682352386
  49 H     1.0000    0     1.008          1.625145577910937         -7.489797250967506          6.180179245637401
  50 H     1.0000    0     1.008          0.218376752035940         11.872242230882941        -10.989097619456183
  51 H     1.0000    0     1.008          4.322672942299506          7.518785649861858         -4.619530020677196
  52 H     1.0000    0     1.008          6.602325166694069          5.442978183533381          1.590204541694733
  53 H     1.0000    0     1.008          8.418729926619177          1.164619319074328          8.990561054743747

--------------------------------
INTERNAL COORDINATES (ANGSTROEM)
--------------------------------
 C      0   0   0   0.000000     0.000     0.000
 C      1   0   0   1.395671     0.000     0.000
 C      2   1   0   1.429777   114.101     0.000
 C      3   2   1   1.398317   113.693     0.000
 S      1   2   3   1.658041   105.480     0.000
 H      2   1   3   1.140683   124.059   177.478
 C      3   2   1   1.611935   123.081   179.713
 C      7   3   2   1.704881   128.026    37.783
 C      8   7   3   1.692458   127.374   355.603
 H      9   8   7   1.149189   110.101   327.748
 H      9   8   7   1.152374   109.392    88.537
 H      8   7   3   1.160557   105.314   118.112
 H      8   7   3   1.157342   104.110   231.695
 H      7   3   2   1.172222   107.860   271.029
 H      7   3   2   1.162821   107.746   154.876
 C      9   8   7   1.636085   106.123   208.240
 C     16   9   8   1.682847   119.588   174.661
 C     17  16   9   1.677918   114.430    96.885
 H     18  17  16   1.158125   108.967   160.656
 H     18  17  16   1.157227   109.510    41.069
 H     18  17  16   1.156224   109.539   280.663
 H     17  16   9   1.152947   108.324   335.817
 H     17  16   9   1.153566   108.053   217.492
 H     16   9   8   1.159320   108.033   297.077
 H     16   9   8   1.160915   108.130    53.702
 C     15   7   3   4.851435   136.951    81.300
 C     26  15   7   1.395671    81.163   149.149
 C     27  26  15   1.429770   114.101   203.407
 C     28  27  26   1.398328   113.693     0.000
 S     26  15   7   1.658042   156.195    40.681
 H     27  26  15   1.151582   123.745    24.350
 C     28  27  26   1.618481   119.429   179.597
 C     32  28  27   1.703545   126.820   207.233
 C     33  32  28   1.694529   125.574    85.556
 H     34  33  32   1.156347   107.702   211.259
 H     34  33  32   1.154279   108.003   328.692
 H     33  32  28   1.173863   101.717   200.754
 H     33  32  28   1.129928   110.969   312.380
 H     32  28  27   1.174629   106.903    84.701
 H     32  28  27   1.168143   107.997   330.241
 C     34  33  32   1.627693   112.199    90.376
 C     41  34  33   1.694603   115.828    83.104
 C     42  41  34   1.681916   116.344    93.609
 H     43  42  41   1.157154   109.437   259.423
 H     43  42  41   1.158438   109.014   139.731
 H     43  42  41   1.156716   109.791    19.881
 H     42  41  34   1.153258   107.795   332.366
 H     42  41  34   1.153217   107.532   214.719
 H     41  34  33   1.158058   108.854   203.729
 H     41  34  33   1.156849   109.308   321.911
 H      1   2   3   1.060010   127.260   180.000
 H      4   3   2   1.059999   127.206   179.999
 H     26  15   7   1.060001    51.045   305.158
 H     29  28  27   1.060001   127.206   180.000

---------------------------
INTERNAL COORDINATES (A.U.)
---------------------------
 C      0   0   0   0.000000     0.000     0.000
 C      1   0   0   2.637437     0.000     0.000
 C      2   1   0   2.701888   114.101     0.000
 C      3   2   1   2.642436   113.693     0.000
 S      1   2   3   3.133243   105.480     0.000
 H      2   1   3   2.155579   124.059   177.478
 C      3   2   1   3.046116   123.081   179.713
 C      7   3   2   3.221759   128.026    37.783
 C      8   7   3   3.198283   127.374   355.603
 H      9   8   7   2.171653   110.101   327.748
 H      9   8   7   2.177671   109.392    88.537
 H      8   7   3   2.193135   105.314   118.112
 H      8   7   3   2.187059   104.110   231.695
 H      7   3   2   2.215179   107.860   271.029
 H      7   3   2   2.197414   107.746   154.876
 C      9   8   7   3.091752   106.123   208.240
 C     16   9   8   3.180120   119.588   174.661
 C     17  16   9   3.170805   114.430    96.885
 H     18  17  16   2.188539   108.967   160.656
 H     18  17  16   2.186841   109.510    41.069
 H     18  17  16   2.184946   109.539   280.663
 H     17  16   9   2.178754   108.324   335.817
 H     17  16   9   2.179924   108.053   217.492
 H     16   9   8   2.190797   108.033   297.077
 H     16   9   8   2.193811   108.130    53.702
 C     15   7   3   9.167883   136.951    81.300
 C     26  15   7   2.637435    81.163   149.149
 C     27  26  15   2.701873   114.101   203.407
 C     28  27  26   2.642457   113.693     0.000
 S     26  15   7   3.133246   156.195    40.681
 H     27  26  15   2.176174   123.745    24.350
 C     28  27  26   3.058486   119.429   179.597
 C     32  28  27   3.219233   126.820   207.233
 C     33  32  28   3.202196   125.574    85.556
 H     34  33  32   2.185179   107.702   211.259
 H     34  33  32   2.181271   108.003   328.692
 H     33  32  28   2.218279   101.717   200.754
 H     33  32  28   2.135255   110.969   312.380
 H     32  28  27   2.219728   106.903    84.701
 H     32  28  27   2.207470   107.997   330.241
 C     34  33  32   3.075895   112.199    90.376
 C     41  34  33   3.202335   115.828    83.104
 C     42  41  34   3.178360   116.344    93.609
 H     43  42  41   2.186704   109.437   259.423
 H     43  42  41   2.189130   109.014   139.731
 H     43  42  41   2.185876   109.791    19.881
 H     42  41  34   2.179342   107.795   332.366
 H     42  41  34   2.179264   107.532   214.719
 H     41  34  33   2.188412   108.854   203.729
 H     41  34  33   2.186128   109.308   321.911
 H      1   2   3   2.003129   127.260   180.000
 H      4   3   2   2.003108   127.206   179.999
 H     26  15   7   2.003111    51.045   305.158
 H     29  28  27   2.003112   127.206   180.000

----------------------------
SLATER BASIS SET DIM= 120
----------------------------
  0 C     2 shells
 l=0 nsto= 1
    2       1.625000000000        1.000000000000
 l=1 nsto= 1
    2       1.625000000000        1.000000000000
  1 C     2 shells
 l=0 nsto= 1
    2       1.625000000000        1.000000000000
 l=1 nsto= 1
    2       1.625000000000        1.000000000000
  2 C     2 shells
 l=0 nsto= 1
    2       1.625000000000        1.000000000000
 l=1 nsto= 1
    2       1.625000000000        1.000000000000
  3 C     2 shells
 l=0 nsto= 1
    2       1.625000000000        1.000000000000
 l=1 nsto= 1
    2       1.625000000000        1.000000000000
  4 S     2 shells
 l=0 nsto= 1
    3       1.925000000000        1.000000000000
 l=1 nsto= 1
    3       1.925000000000        1.000000000000
  5 H     1 shells
 l=0 nsto= 1
    1       1.200000000000        1.000000000000
  6 C     2 shells
 l=0 nsto= 1
    2       1.625000000000        1.000000000000
 l=1 nsto= 1
    2       1.625000000000        1.000000000000
  7 C     2 shells
 l=0 nsto= 1
    2       1.625000000000        1.000000000000
 l=1 nsto= 1
    2       1.625000000000        1.000000000000
  8 C     2 shells
 l=0 nsto= 1
    2       1.625000000000        1.000000000000
 l=1 nsto= 1
    2       1.625000000000        1.000000000000
  9 H     1 shells
 l=0 nsto= 1
    1       1.200000000000        1.000000000000
 10 H     1 shells
 l=0 nsto= 1
    1       1.200000000000        1.000000000000
 11 H     1 shells
 l=0 nsto= 1
    1       1.200000000000        1.000000000000
 12 H     1 shells
 l=0 nsto= 1
    1       1.200000000000        1.000000000000
 13 H     1 shells
 l=0 nsto= 1
    1       1.200000000000        1.000000000000
 14 H     1 shells
 l=0 nsto= 1
    1       1.200000000000        1.000000000000
 15 C     2 shells
 l=0 nsto= 1
    2       1.625000000000        1.000000000000
 l=1 nsto= 1
    2       1.625000000000        1.000000000000
 16 C     2 shells
 l=0 nsto= 1
    2       1.625000000000        1.000000000000
 l=1 nsto= 1
    2       1.625000000000        1.000000000000
 17 C     2 shells
 l=0 nsto= 1
    2       1.625000000000        1.000000000000
 l=1 nsto= 1
    2       1.625000000000        1.000000000000
 18 H     1 shells
 l=0 nsto= 1
    1       1.200000000000        1.000000000000
 19 H     1 shells
 l=0 nsto= 1
    1       1.200000000000        1.000000000000
 20 H     1 shells
 l=0 nsto= 1
    1       1.200000000000        1.000000000000
 21 H     1 shells
 l=0 nsto= 1
    1       1.200000000000        1.000000000000
 22 H     1 shells
 l=0 nsto= 1
    1       1.200000000000        1.000000000000
 23 H     1 shells
 l=0 nsto= 1
    1       1.200000000000        1.000000000000
 24 H     1 shells
 l=0 nsto= 1
    1       1.200000000000        1.000000000000
 25 C     2 shells
 l=0 nsto= 1
    2       1.625000000000        1.000000000000
 l=1 nsto= 1
    2       1.625000000000        1.000000000000
 26 C     2 shells
 l=0 nsto= 1
    2       1.625000000000        1.000000000000
 l=1 nsto= 1
    2       1.625000000000        1.000000000000
 27 C     2 shells
 l=0 nsto= 1
    2       1.625000000000        1.000000000000
 l=1 nsto= 1
    2       1.625000000000        1.000000000000
 28 C     2 shells
 l=0 nsto= 1
    2       1.625000000000        1.000000000000
 l=1 nsto= 1
    2       1.625000000000        1.000000000000
 29 S     2 shells
 l=0 nsto= 1
    3       1.925000000000        1.000000000000
 l=1 nsto= 1
    3       1.925000000000        1.000000000000
 30 H     1 shells
 l=0 nsto= 1
    1       1.200000000000        1.000000000000
 31 C     2 shells
 l=0 nsto= 1
    2       1.625000000000        1.000000000000
 l=1 nsto= 1
    2       1.625000000000        1.000000000000
 32 C     2 shells
 l=0 nsto= 1
    2       1.625000000000        1.000000000000
 l=1 nsto= 1
    2       1.625000000000        1.000000000000
 33 C     2 shells
 l=0 nsto= 1
    2       1.625000000000        1.000000000000
 l=1 nsto= 1
    2       1.625000000000        1.000000000000
 34 H     1 shells
 l=0 nsto= 1
    1       1.200000000000        1.000000000000
 35 H     1 shells
 l=0 nsto= 1
    1       1.200000000000        1.000000000000
 36 H     1 shells
 l=0 nsto= 1
    1       1.200000000000        1.000000000000
 37 H     1 shells
 l=0 nsto= 1
    1       1.200000000000        1.000000000000
 38 H     1 shells
 l=0 nsto= 1
    1       1.200000000000        1.000000000000
 39 H     1 shells
 l=0 nsto= 1
    1       1.200000000000        1.000000000000
 40 C     2 shells
 l=0 nsto= 1
    2       1.625000000000        1.000000000000
 l=1 nsto= 1
    2       1.625000000000        1.000000000000
 41 C     2 shells
 l=0 nsto= 1
    2       1.625000000000        1.000000000000
 l=1 nsto= 1
    2       1.625000000000        1.000000000000
 42 C     2 shells
 l=0 nsto= 1
    2       1.625000000000        1.000000000000
 l=1 nsto= 1
    2       1.625000000000        1.000000000000
 43 H     1 shells
 l=0 nsto= 1
    1       1.200000000000        1.000000000000
 44 H     1 shells
 l=0 nsto= 1
    1       1.200000000000        1.000000000000
 45 H     1 shells
 l=0 nsto= 1
    1       1.200000000000        1.000000000000
 46 H     1 shells
 l=0 nsto= 1
    1       1.200000000000        1.000000000000
 47 H     1 shells
 l=0 nsto= 1
    1       1.200000000000        1.000000000000
 48 H     1 shells
 l=0 nsto= 1
    1       1.200000000000        1.000000000000
 49 H     1 shells
 l=0 nsto= 1
    1       1.200000000000        1.000000000000
 50 H     1 shells
 l=0 nsto= 1
    1       1.200000000000        1.000000000000
 51 H     1 shells
 l=0 nsto= 1
    1       1.200000000000        1.000000000000
 52 H     1 shells
 l=0 nsto= 1
    1       1.200000000000        1.000000000000
 53 H     1 shells
 l=0 nsto= 1
    1       1.200000000000        1.000000000000
------------------------------------------------------------------------------
                           ORCA NDO INTEGRAL CALCULATION
------------------------------------------------------------------------------

--------------
NDO PARAMETERS
--------------

Gamma integral treatment              ... Mataga-Nishimoto
Nuclear repulsuion treatment          ... Direct (ZA*ZB/RAB)
Interaction factors:
s-s (sigma) =    1.0000
s-p (sigma) =    1.0000
s-d (sigma) =    1.0000
p-p (sigma) =    1.2670  p-p(pi) =    0.5850
p-d (sigma) =    1.0000  p-d(pi) =    1.0000
d-d (sigma) =    1.0000  d-d(pi) =    1.0000 d-d (delta) =    1.0000

fGamma parameter for Mataga-Nishimoto gamma integrals:    1.2000

--------------------------
Parameters for Element H :
--------------------------
 One-electron parameters (in eV)
  U(s)  =   -13.060000 Beta(s) =    12.000000 Neff(s) =     1.000000
 One-center electron repulsion parameters (in eV)
  G(s,s)=    12.850000
--------------------------
Parameters for Element C :
--------------------------
 One-electron parameters (in eV)
  U(s)  =   -50.870766 Beta(s) =    17.000000 Neff(s) =     2.000000
  U(p)  =   -41.599980 Beta(p) =    17.000000 Neff(p) =     2.000000 
 One-center electron repulsion parameters (in eV)
  G(s,s)=    11.110000
  G(s,p)=    11.110000 G(p,p)  =    11.110000
 Slater-Condon parameters (in eV)
 F2(p,p)=     4.5098 G1(s,p)=    6.8977
--------------------------
Parameters for Element S :
--------------------------
 One-electron parameters (in eV)
  U(s)  =   -69.509597 Beta(s) =    15.000000 Neff(s) =     2.000000
  U(p)  =   -60.725746 Beta(p) =    15.000000 Neff(p) =     4.000000 
 One-center electron repulsion parameters (in eV)
  G(s,s)=    10.090000
  G(s,p)=    10.090000 G(p,p)  =    10.090000
 Slater-Condon parameters (in eV)
 F2(p,p)=     4.5377 G1(s,p)=    3.0756

 Number of atoms                    ....   54
 Number of basis functions          ....  120

 Overlap integrals                  .... done
 One electron matrix                .... done
 Nuclear repulsion                  .... done
 Integral list                      .... done
 Electron-electron repulsion        .... done
-------------------------------------------------------------------------------
                                 ORCA SCF
-------------------------------------------------------------------------------

------------
SCF SETTINGS
------------
Hamiltonian:
 ZDO-Hamiltonian        Method          .... INDO


General Settings:
 Integral files         IntName         .... /Users/mattyjones/GoogleDrive/Boise/Code/MorphCT/tests/output_EZ/donor_polymer/chromophores/input_orca/pair/00010-00012
 Hartree-Fock type      HFTyp           .... RHF
 Total Charge           Charge          ....    0
 Multiplicity           Mult            ....    1
 Number of Electrons    NEL             ....  124
 Basis Dimension        Dim             ....  120
 Nuclear Repulsion      ENuc            ....    784.5796235346 Eh

Convergence Acceleration:
 DIIS                   CNVDIIS         .... on
   Start iteration      DIISMaxIt       ....    12
   Startup error        DIISStart       ....  0.200000
   # of expansion vecs  DIISMaxEq       ....     5
   Bias factor          DIISBfac        ....   1.050
   Max. coefficient     DIISMaxC        ....  10.000
 Newton-Raphson         CNVNR           .... off
 SOSCF                  CNVSOSCF        .... on
   Start iteration      SOSCFMaxIt      ....   150
   Startup grad/error   SOSCFStart      ....  0.003300
 Level Shifting         CNVShift        .... on
   Level shift para.    LevelShift      ....    0.2500
   Turn off err/grad.   ShiftErr        ....    0.0010
 Zerner damping         CNVZerner       .... off
 Static damping         CNVDamp         .... on
   Fraction old density DampFac         ....    0.7000
   Max. Damping (<1)    DampMax         ....    0.9800
   Min. Damping (>=0)   DampMin         ....    0.0000
   Turn off err/grad.   DampErr         ....    0.1000
 Fernandez-Rico         CNVRico         .... off

SCF Procedure:
 Maximum # iterations   MaxIter         ....   125
 SCF integral mode      SCFMode         .... Conventional
 Integral Buffer length BufferLength    .... 1048576
 Integral index format  IndFormat       ....     0
 Integral value format  ValFormat       ....     0
 Integral Storage       Thresh          ....  1.000e-08 Eh

Convergence Tolerance:
 Convergence Check Mode ConvCheckMode   .... Total+1el-Energy
 Energy Change          TolE            ....  1.000e-06 Eh
 1-El. energy change                    ....  1.000e-03 Eh
 Orbital Gradient       TolG            ....  5.000e-05
 Orbital Rotation angle TolX            ....  5.000e-05
 DIIS Error             TolErr          ....  1.000e-06


Diagonalization of the overlap matrix:
Smallest eigenvalue                        ... 1.698e-01
Time for diagonalization                   ...    0.003 sec
Threshold for overlap eigenvalues          ... 1.000e-08
Number of eigenvalues below threshold      ... 0
Time for construction of square roots      ...    0.001 sec
Total time needed                          ...    0.004 sec

-------------------------------
INITIAL GUESS: EXTENDED HUECKEL
-------------------------------
EHT matrix was read from disk
EHT matrix was diagonalized
Initial density was built
                      ------------------
                      INITIAL GUESS DONE
                      ------------------

 InCore treatment chosen:
   Memory dedicated               ...    1024 MB
   Memory needed                  ...      0 MB
   Number of tiny    integrals    ...       0
   Number of small   integrals    ...       0
   Number of regular integrals    ...    7392

--------------
SCF ITERATIONS
--------------
ITER       Energy         Delta-E        Max-DP      RMS-DP      [F,P]     Damp
  0    -21.7071103348   0.000000000000 0.04331222  0.00144631  0.1022132 0.7000
  1    -21.7488429958  -0.041732661001 0.04235519  0.00136178  0.0712933 0.7000
                               ***Turning on DIIS***
  2    -21.7796886355  -0.030845639670 0.11190697  0.00349366  0.0466204 0.0000
  3    -21.8563615550  -0.076672919464 0.01989127  0.00072860  0.0200142 0.0000
  4    -21.8456523318   0.010709223157 0.01445724  0.00049849  0.0081710 0.0000
  5    -21.8622367709  -0.016584439124 0.01019940  0.00033658  0.0048513 0.0000
  6    -21.8648243363  -0.002587565362 0.00752132  0.00023861  0.0027645 0.0000
                      *** Initiating the SOSCF procedure ***
                           *** Shutting down DIIS ***
                      *** Re-Reading the Fockian *** 
                      *** Removing any level shift *** 
ITER      Energy       Delta-E        Grad      Rot      Max-DP    RMS-DP
  7    -21.86094519   0.0038791429  0.003018  0.003018  0.004505  0.000134
  8    -21.85869716   0.0022480355  0.000798  0.002189  0.002248  0.000062
  9    -21.85871157  -0.0000144118  0.000356  0.002158  0.002510  0.000066
 10    -21.85871684  -0.0000052745  0.000028  0.000065  0.000116  0.000004
                 **** Energy Check signals convergence ****
              ***Rediagonalizing the Fockian in SOSCF/NRSCF***

               *****************************************************
               *                     SUCCESS                       *
               *           SCF CONVERGED AFTER  11 CYCLES          *
               *****************************************************


----------------
TOTAL SCF ENERGY
----------------

Total Energy       :          -21.85871689 Eh            -594.80593 eV

Components:
Nuclear Repulsion  :          784.57962353 Eh           21349.49694 eV
Electronic Energy  :         -806.43834042 Eh          -21944.30287 eV

One Electron Energy:        -1522.39942241 Eh          -41426.59437 eV
Two Electron Energy:          715.96108199 Eh           19482.29150 eV


---------------
SCF CONVERGENCE
---------------

  Last Energy change         ...   -4.4761e-08  Tolerance :   1.0000e-06
  Last MAX-Density change    ...    5.9593e-05  Tolerance :   1.0000e-05
  Last RMS-Density change    ...    1.2285e-06  Tolerance :   1.0000e-06
  Last Orbital Gradient      ...    8.1761e-06  Tolerance :   5.0000e-05
  Last Orbital Rotation      ...    2.2923e-05  Tolerance :   5.0000e-05

             **** THE GBW FILE WAS UPDATED (/Users/mattyjones/GoogleDrive/Boise/Code/MorphCT/tests/output_EZ/donor_polymer/chromophores/input_orca/pair/00010-00012.gbw) ****
             **** DENSITY FILE WAS UPDATED (/Users/mattyjones/GoogleDrive/Boise/Code/MorphCT/tests/output_EZ/donor_polymer/chromophores/input_orca/pair/00010-00012.scfp.tmp) ****
             **** ENERGY FILE WAS UPDATED (/Users/mattyjones/GoogleDrive/Boise/Code/MorphCT/tests/output_EZ/donor_polymer/chromophores/input_orca/pair/00010-00012.en.tmp) ****
----------------
ORBITAL ENERGIES
----------------

  NO   OCC          E(Eh)            E(eV) 
   0   2.0000      -1.557350       -42.3776 
   1   2.0000      -1.555800       -42.3355 
   2   2.0000      -1.405833       -38.2547 
   3   2.0000      -1.404156       -38.2090 
   4   2.0000      -1.292255       -35.1640 
   5   2.0000      -1.281720       -34.8774 
   6   2.0000      -1.194500       -32.5040 
   7   2.0000      -1.180834       -32.1321 
   8   2.0000      -1.109300       -30.1856 
   9   2.0000      -1.108673       -30.1685 
  10   2.0000      -1.052258       -28.6334 
  11   2.0000      -1.032070       -28.0840 
  12   2.0000      -0.983092       -26.7513 
  13   2.0000      -0.972691       -26.4683 
  14   2.0000      -0.901813       -24.5396 
  15   2.0000      -0.887663       -24.1545 
  16   2.0000      -0.870532       -23.6884 
  17   2.0000      -0.843962       -22.9654 
  18   2.0000      -0.832080       -22.6421 
  19   2.0000      -0.828176       -22.5358 
  20   2.0000      -0.784088       -21.3361 
  21   2.0000      -0.769021       -20.9261 
  22   2.0000      -0.728637       -19.8272 
  23   2.0000      -0.708269       -19.2730 
  24   2.0000      -0.704909       -19.1815 
  25   2.0000      -0.698573       -19.0091 
  26   2.0000      -0.695899       -18.9364 
  27   2.0000      -0.666534       -18.1373 
  28   2.0000      -0.639678       -17.4065 
  29   2.0000      -0.633371       -17.2349 
  30   2.0000      -0.625299       -17.0153 
  31   2.0000      -0.621845       -16.9213 
  32   2.0000      -0.588864       -16.0238 
  33   2.0000      -0.579919       -15.7804 
  34   2.0000      -0.576159       -15.6781 
  35   2.0000      -0.573307       -15.6005 
  36   2.0000      -0.565817       -15.3967 
  37   2.0000      -0.562762       -15.3135 
  38   2.0000      -0.562720       -15.3124 
  39   2.0000      -0.558396       -15.1947 
  40   2.0000      -0.540206       -14.6998 
  41   2.0000      -0.536777       -14.6064 
  42   2.0000      -0.523471       -14.2444 
  43   2.0000      -0.512463       -13.9448 
  44   2.0000      -0.507079       -13.7983 
  45   2.0000      -0.502137       -13.6638 
  46   2.0000      -0.496777       -13.5180 
  47   2.0000      -0.493183       -13.4202 
  48   2.0000      -0.488017       -13.2796 
  49   2.0000      -0.486187       -13.2298 
  50   2.0000      -0.480069       -13.0634 
  51   2.0000      -0.476304       -12.9609 
  52   2.0000      -0.472910       -12.8685 
  53   2.0000      -0.469237       -12.7686 
  54   2.0000      -0.455675       -12.3995 
  55   2.0000      -0.454417       -12.3653 
  56   2.0000      -0.441224       -12.0063 
  57   2.0000      -0.436996       -11.8913 
  58   2.0000      -0.358013        -9.7420 
  59   2.0000      -0.357373        -9.7246 
  60   2.0000      -0.305687        -8.3182 
  61   2.0000      -0.305620        -8.3163 
  62   0.0000       0.006550         0.1782 
  63   0.0000       0.007188         0.1956 
  64   0.0000       0.065893         1.7931 
  65   0.0000       0.066179         1.8008 
  66   0.0000       0.073782         2.0077 
  67   0.0000       0.074325         2.0225 
  68   0.0000       0.086156         2.3444 
  69   0.0000       0.088482         2.4077 
  70   0.0000       0.101885         2.7724 
  71   0.0000       0.104545         2.8448 
  72   0.0000       0.106397         2.8952 
  73   0.0000       0.107440         2.9236 
  74   0.0000       0.122339         3.3290 
  75   0.0000       0.123993         3.3740 
  76   0.0000       0.139545         3.7972 
  77   0.0000       0.143016         3.8917 
  78   0.0000       0.155219         4.2237 
  79   0.0000       0.160922         4.3789 
  80   0.0000       0.163807         4.4574 
  81   0.0000       0.164272         4.4701 
  82   0.0000       0.168274         4.5790 
  83   0.0000       0.172688         4.6991 
  84   0.0000       0.202647         5.5143 
  85   0.0000       0.204186         5.5562 
  86   0.0000       0.228817         6.2264 
  87   0.0000       0.231981         6.3125 
  88   0.0000       0.232232         6.3194 
  89   0.0000       0.233203         6.3458 
  90   0.0000       0.234375         6.3777 
  91   0.0000       0.236633         6.4391 
  92   0.0000       0.238547         6.4912 
  93   0.0000       0.238776         6.4974 
  94   0.0000       0.239239         6.5100 
  95   0.0000       0.240511         6.5446 
  96   0.0000       0.241536         6.5725 
  97   0.0000       0.242875         6.6090 
  98   0.0000       0.243659         6.6303 
  99   0.0000       0.244433         6.6514 
 100   0.0000       0.244995         6.6667 
 101   0.0000       0.252504         6.8710 
 102   0.0000       0.257307         7.0017 
 103   0.0000       0.260468         7.0877 
 104   0.0000       0.265694         7.2299 
 105   0.0000       0.266300         7.2464 
 106   0.0000       0.286465         7.7951 
 107   0.0000       0.286882         7.8065 
 108   0.0000       0.300491         8.1768 
 109   0.0000       0.305207         8.3051 
 110   0.0000       0.308964         8.4073 
 111   0.0000       0.310392         8.4462 
 112   0.0000       0.338470         9.2102 
 113   0.0000       0.341046         9.2803 
 114   0.0000       0.352319         9.5871 
 115   0.0000       0.357601         9.7308 
 116   0.0000       0.412316        11.2197 
 117   0.0000       0.414094        11.2681 
 118   0.0000       0.430277        11.7084 
 119   0.0000       0.431343        11.7374 
-------
TIMINGS
-------

Total SCF time: 0 days 0 hours 0 min 0 sec 

Total time                  ....       0.484 sec
Sum of individual times     ....       0.197 sec  ( 40.6%)

Fock matrix formation       ....       0.051 sec  ( 10.4%)
Diagonalization             ....       0.023 sec  (  4.8%)
Density matrix formation    ....       0.005 sec  (  1.1%)
Population analysis         ....       0.000 sec  (  0.0%)
Initial guess               ....       0.003 sec  (  0.6%)
Orbital Transformation      ....       0.000 sec  (  0.0%)
Orbital Orthonormalization  ....       0.000 sec  (  0.0%)
DIIS solution               ....       0.106 sec  ( 21.9%)
SOSCF solution              ....       0.009 sec  (  1.8%)

-------------------------   --------------------
FINAL SINGLE POINT ENERGY       -21.858716888801
-------------------------   --------------------


                            ***************************************
                            *     ORCA property calculations      *
                            ***************************************

                                    ---------------------
                                    Active property flags
                                    ---------------------
   (+) Dipole Moment


------------------------------------------------------------------------------
                       ORCA ELECTRIC PROPERTIES CALCULATION
------------------------------------------------------------------------------

Dipole Moment Calculation                       ... on
Quadrupole Moment Calculation                   ... off
Polarizability Calculation                      ... off
GBWName                                         ... /Users/mattyjones/GoogleDrive/Boise/Code/MorphCT/tests/output_EZ/donor_polymer/chromophores/input_orca/pair/00010-00012.gbw
Electron density file                           ... /Users/mattyjones/GoogleDrive/Boise/Code/MorphCT/tests/output_EZ/donor_polymer/chromophores/input_orca/pair/00010-00012.scfp.tmp

-------------
DIPOLE MOMENT
-------------
                                X             Y             Z
Electronic contribution:    164.89540     214.33984     -33.41275
Nuclear contribution   :    -88.57709    -115.54947      18.41812
                        -----------------------------------------
Total Dipole Moment    :     76.31831      98.79036     -14.99463
                        -----------------------------------------
Magnitude (a.u.)       :    125.73328
Magnitude (Debye)      :    319.58861


Timings for individual modules:

Sum of individual times         ...        0.569 sec (=   0.009 min)
STO integral calculation        ...        0.043 sec (=   0.001 min)   7.6 %
SCF iterations                  ...        0.526 sec (=   0.009 min)  92.4 %
                             ****ORCA TERMINATED NORMALLY****
TOTAL RUN TIME: 0 days 0 hours 0 minutes 0 seconds 922 msec

