
                                 *****************
                                 * O   R   C   A *
                                 *****************

           --- An Ab Initio, DFT and Semiempirical electronic structure package ---

                  #######################################################
                  #                        -***-                        #
                  #  Department of molecular theory and spectroscopy    #
                  #              Directorship: Frank Neese              #
                  # Max Planck Institute for Chemical Energy Conversion #
                  #                  D-45470 Muelheim/Ruhr              #
                  #                       Germany                       #
                  #                                                     #
                  #                  All rights reserved                #
                  #                        -***-                        #
                  #######################################################


                         Program Version 4.0.1.2 - RELEASE -


 With contributions from (in alphabetic order):
   Daniel Aravena         : Magnetic Properties
   Michael Atanasov       : Ab Initio Ligand Field Theory
   Ute Becker             : Parallelization
   Martin Brehm           : Molecular dynamics
   Dmytro Bykov           : SCF Hessian
   Vijay G. Chilkuri      : MRCI spin determinant printing
   Dipayan Datta          : RHF DLPNO-CCSD density
   Achintya Kumar Dutta   : EOM-CC, STEOM-CC
   Dmitry Ganyushin       : Spin-Orbit,Spin-Spin,Magnetic field MRCI
   Yang Guo               : DLPNO-NEVPT2, CIM, IAO-localization
   Andreas Hansen         : Spin unrestricted coupled pair/coupled cluster methods
   Lee Huntington         : MR-EOM, pCC
   Robert Izsak           : Overlap fitted RIJCOSX, COSX-SCS-MP3, EOM
   Christian Kollmar      : KDIIS, OOCD, Brueckner-CCSD(T), CCSD density
   Simone Kossmann        : Meta GGA functionals, TD-DFT gradient, OOMP2, MP2 Hessian
   Martin Krupicka        : AUTO-CI
   Dagmar Lenk            : GEPOL surface
   Dimitrios Liakos       : Extrapolation schemes; parallel MDCI
   Dimitrios Manganas     : ROCIS; embedding schemes
   Dimitrios Pantazis     : SARC Basis sets
   Taras Petrenko         : DFT Hessian,TD-DFT gradient, ASA, ECA, R-Raman, ABS, FL, XAS/XES, NRVS
   Peter Pinski           : DLPNO-MP2
   Christoph Reimann      : Effective Core Potentials
   Marius Retegan         : Local ZFS, SOC
   Christoph Riplinger    : Optimizer, TS searches, QM/MM, DLPNO-CCSD(T), (RO)-DLPNO pert. Triples
   Tobias Risthaus        : Range-separated hybrids, TD-DFT gradient, RPA, STAB
   Michael Roemelt        : Restricted open shell CIS
   Masaaki Saitow         : Open-shell DLPNO
   Barbara Sandhoefer     : DKH picture change effects
   Kantharuban Sivalingam : CASSCF convergence, NEVPT2, FIC-MRCI
   Georgi Stoychev        : AutoAux
   Boris Wezisla          : Elementary symmetry handling
   Frank Wennmohs         : Technical directorship


 We gratefully acknowledge several colleagues who have allowed us to
 interface, adapt or use parts of their codes:
   Stefan Grimme, W. Hujo, H. Kruse,             : VdW corrections, initial TS optimization,
                  C. Bannwarth                     DFT functionals, gCP, sTDA/sTD-DF
   Ed Valeev                                     : LibInt (2-el integral package), F12 methods
   Garnet Chan, S. Sharma, J. Yang, R. Olivares  : DMRG
   Ulf Ekstrom                                   : XCFun DFT Library
   Mihaly Kallay                                 : mrcc  (arbitrary order and MRCC methods)
   Andreas Klamt, Michael Diedenhofen            : otool_cosmo (COSMO solvation model)
   Jiri Pittner, Ondrej Demel                    : Mk-CCSD
   Frank Weinhold                                : gennbo (NPA and NBO analysis)
   Christopher J. Cramer and Donald G. Truhlar   : smd solvation model


 Your calculation uses the libint2 library for the computation of 2-el integrals
 For citations please refer to: http://libint.valeyev.net

 This ORCA versions uses:
   CBLAS   interface :  Fast vector & matrix operations
   LAPACKE interface :  Fast linear algebra routines
   SCALAPACK package :  Parallel linear algebra routines


leaving
Your calculation utilizes the basis: def2-SVP
   F. Weigend and R. Ahlrichs, Phys. Chem. Chem. Phys. 7, 3297 (2005).

================================================================================
                                        WARNINGS
                       Please study these warnings very carefully!
================================================================================

Warning: TCutStore was < 0. Adjusted to Thresh (uncritical)

WARNING: Direct SCF is incompatible with Method<>HF and Method<>DFT
  ===> : conventional SCF is chosen

WARNING: The NDO methods need Guess=HUECKEL or Guess=HCORE or Guess=MOREAD
  ===> : Guess is set to Hueckel

WARNING: The NDO methods need %rel::SOCType==1
  ===> : %rel::SOCType is set to 1

WARNING: The NDO methods cannot have frozencore=1
  ===> : %method FrozenCore=0 end

INFO   : the flag for use of LIBINT has been found!

================================================================================
                                       INPUT FILE
================================================================================
NAME = /home/mattyjones/Software/morphct/tests/output_EZ/donor_polymer/chromophores/input_orca/pair/00015-00022.inp
|  1> # ================================================================
|  2> # Orca input file made by Matty Jones
|  3> # ================================================================
|  4> ! ZINDO/S 
|  5> ! NOPOP
|  6> ! NOMOPRINT
|  7> * xyz 0   1
|  8>  C  5.63034  -8.97812  33.11244
|  9>  C  5.71277  -10.11416  33.91897
| 10>  C  5.83763  -9.83134  35.31493
| 11>  C  5.85387  -8.46507  35.61218
| 12>  S  5.71485  -7.68979  34.15271
| 13>  H  6.12542  -11.09770  33.47040
| 14>  C  5.91214  -11.16782  36.21333
| 15>  C  4.55085  -12.12250  35.61831
| 16>  C  3.75652  -13.63761  35.77423
| 17>  H  2.62348  -13.42328  35.83487
| 18>  H  4.10927  -14.12252  36.75808
| 19>  H  4.79626  -12.20091  34.49398
| 20>  H  3.67783  -11.37560  35.77179
| 21>  H  5.78472  -10.96792  37.33776
| 22>  H  6.88953  -11.75471  36.00212
| 23>  C  4.04995  -14.64468  34.51894
| 24>  C  2.96106  -15.93319  34.39788
| 25>  C  3.38619  -17.27967  35.30067
| 26>  H  2.73100  -18.17756  34.97740
| 27>  H  3.21110  -17.05511  36.42283
| 28>  H  4.50205  -17.52901  35.12299
| 29>  H  2.90205  -16.24646  33.28924
| 30>  H  1.92479  -15.56862  34.74569
| 31>  H  5.11479  -15.08159  34.60952
| 32>  H  3.97387  -14.05731  33.52406
| 33>  C  -7.10337  9.50377  -36.70239
| 34>  C  -6.22479  10.44121  -36.15726
| 35>  C  -6.85381  11.40990  -35.31453
| 36>  C  -8.23606  11.23651  -35.19361
| 37>  S  -8.60205  9.91241  -36.12268
| 38>  H  -5.10203  10.44324  -36.35088
| 39>  C  -6.06375  12.61076  -34.58907
| 40>  C  -5.04902  13.53984  -35.55999
| 41>  C  -4.39204  14.83880  -34.70194
| 42>  H  -5.25954  15.32767  -34.10746
| 43>  H  -4.02482  15.60648  -35.48907
| 44>  H  -4.20350  12.87688  -35.96145
| 45>  H  -5.66898  13.95798  -36.43634
| 46>  H  -6.72084  13.35693  -34.00253
| 47>  H  -5.35731  12.12078  -33.78032
| 48>  C  -3.17587  14.50512  -33.67918
| 49>  C  -1.64767  14.40054  -34.37911
| 50>  C  -1.25419  12.81777  -34.79184
| 51>  H  -0.23257  12.80936  -35.33471
| 52>  H  -2.06599  12.37905  -35.48753
| 53>  H  -1.18645  12.18234  -33.82628
| 54>  H  -1.62562  15.04636  -35.33216
| 55>  H  -0.86852  14.79171  -33.62665
| 56>  H  -3.38933  13.50248  -33.14157
| 57>  H  -3.12352  15.34089  -32.87674
| 58>  H  5.53402  -8.94576  32.05732
| 59>  H  5.93753  -8.01841  36.56983
| 60>  H  -6.86318  8.70003  -37.35040
| 61>  H  -8.90904  11.82762  -34.62679
| 62> *
| 63> 
| 64>                          ****END OF INPUT****
================================================================================

                       ****************************
                       * Single Point Calculation *
                       ****************************

---------------------------------
CARTESIAN COORDINATES (ANGSTROEM)
---------------------------------
  C      5.630340   -8.978120   33.112440
  C      5.712770  -10.114160   33.918970
  C      5.837630   -9.831340   35.314930
  C      5.853870   -8.465070   35.612180
  S      5.714850   -7.689790   34.152710
  H      6.125420  -11.097700   33.470400
  C      5.912140  -11.167820   36.213330
  C      4.550850  -12.122500   35.618310
  C      3.756520  -13.637610   35.774230
  H      2.623480  -13.423280   35.834870
  H      4.109270  -14.122520   36.758080
  H      4.796260  -12.200910   34.493980
  H      3.677830  -11.375600   35.771790
  H      5.784720  -10.967920   37.337760
  H      6.889530  -11.754710   36.002120
  C      4.049950  -14.644680   34.518940
  C      2.961060  -15.933190   34.397880
  C      3.386190  -17.279670   35.300670
  H      2.731000  -18.177560   34.977400
  H      3.211100  -17.055110   36.422830
  H      4.502050  -17.529010   35.122990
  H      2.902050  -16.246460   33.289240
  H      1.924790  -15.568620   34.745690
  H      5.114790  -15.081590   34.609520
  H      3.973870  -14.057310   33.524060
  C     -7.103370    9.503770  -36.702390
  C     -6.224790   10.441210  -36.157260
  C     -6.853810   11.409900  -35.314530
  C     -8.236060   11.236510  -35.193610
  S     -8.602050    9.912410  -36.122680
  H     -5.102030   10.443240  -36.350880
  C     -6.063750   12.610760  -34.589070
  C     -5.049020   13.539840  -35.559990
  C     -4.392040   14.838800  -34.701940
  H     -5.259540   15.327670  -34.107460
  H     -4.024820   15.606480  -35.489070
  H     -4.203500   12.876880  -35.961450
  H     -5.668980   13.957980  -36.436340
  H     -6.720840   13.356930  -34.002530
  H     -5.357310   12.120780  -33.780320
  C     -3.175870   14.505120  -33.679180
  C     -1.647670   14.400540  -34.379110
  C     -1.254190   12.817770  -34.791840
  H     -0.232570   12.809360  -35.334710
  H     -2.065990   12.379050  -35.487530
  H     -1.186450   12.182340  -33.826280
  H     -1.625620   15.046360  -35.332160
  H     -0.868520   14.791710  -33.626650
  H     -3.389330   13.502480  -33.141570
  H     -3.123520   15.340890  -32.876740
  H      5.534020   -8.945760   32.057320
  H      5.937530   -8.018410   36.569830
  H     -6.863180    8.700030  -37.350400
  H     -8.909040   11.827620  -34.626790

----------------------------
CARTESIAN COORDINATES (A.U.)
----------------------------
  NO LB      ZA    FRAG     MASS         X           Y           Z
   0 C     4.0000    0    12.011   10.639801  -16.966188   62.573443
   1 C     4.0000    0    12.011   10.795571  -19.112992   64.097564
   2 C     4.0000    0    12.011   11.031522  -18.578540   66.735546
   3 C     4.0000    0    12.011   11.062211  -15.996664   67.297267
   4 S     6.0000    0    32.060   10.799501  -14.531597   64.539269
   5 H     1.0000    0     1.008   11.575366  -20.971614   63.249890
   6 C     4.0000    0    12.011   11.172325  -21.104121   68.433276
   7 C     4.0000    0    12.011    8.599860  -22.908205   67.308851
   8 C     4.0000    0    12.011    7.098794  -25.771348   67.603497
   9 H     1.0000    0     1.008    4.957659  -25.366323   67.718090
  10 H     1.0000    0     1.008    7.765395  -26.687695   69.462704
  11 H     1.0000    0     1.008    9.063618  -23.056378   65.184175
  12 H     1.0000    0     1.008    6.950091  -21.496769   67.598886
  13 H     1.0000    0     1.008   10.931537  -20.726365   70.558141
  14 H     1.0000    0     1.008   13.019325  -22.213183   68.034147
  15 C     4.0000    0    12.011    7.653296  -27.674435   65.231343
  16 C     4.0000    0    12.011    5.595592  -30.109366   65.002573
  17 C     4.0000    0    12.011    6.398972  -32.653844   66.708599
  18 H     1.0000    0     1.008    5.160842  -34.350610   66.097707
  19 H     1.0000    0     1.008    6.068100  -32.229487   68.829174
  20 H     1.0000    0     1.008    8.507642  -33.125028   66.372832
  21 H     1.0000    0     1.008    5.484080  -30.701360   62.907547
  22 H     1.0000    0     1.008    3.637326  -29.420428   65.659838
  23 H     1.0000    0     1.008    9.665552  -28.500075   65.402514
  24 H     1.0000    0     1.008    7.509526  -26.564466   63.351292
  25 C     4.0000    0    12.011  -13.423424   17.959523  -69.357466
  26 C     4.0000    0    12.011  -11.763148   19.731027  -68.327319
  27 C     4.0000    0    12.011  -12.951824   21.561586  -66.734790
  28 C     4.0000    0    12.011  -15.563898   21.233927  -66.506285
  29 S     6.0000    0    32.060  -16.255519   18.731740  -68.261972
  30 H     1.0000    0     1.008   -9.641439   19.734864  -68.693208
  31 C     4.0000    0    12.011  -11.458827   23.830883  -65.363870
  32 C     4.0000    0    12.011   -9.541265   25.586589  -67.198642
  33 C     4.0000    0    12.011   -8.299753   28.041268  -65.577163
  34 H     1.0000    0     1.008   -9.939090   28.965099  -64.453759
  35 H     1.0000    0     1.008   -7.605808   29.491973  -67.064623
  36 H     1.0000    0     1.008   -7.943464   24.333777  -67.957292
  37 H     1.0000    0     1.008  -10.712820   26.376760  -68.854704
  38 H     1.0000    0     1.008  -12.700547   25.240940  -64.255470
  39 H     1.0000    0     1.008  -10.123849   22.904955  -63.835554
  40 C     4.0000    0    12.011   -6.001525   27.410704  -63.644427
  41 C     4.0000    0    12.011   -3.113645   27.213077  -64.967103
  42 C     4.0000    0    12.011   -2.370076   24.222075  -65.747049
  43 H     1.0000    0     1.008   -0.439494   24.206182  -66.772925
  44 H     1.0000    0     1.008   -3.904155   23.393014  -67.061713
  45 H     1.0000    0     1.008   -2.242066   23.021286  -63.922405
  46 H     1.0000    0     1.008   -3.071977   28.433500  -66.768106
  47 H     1.0000    0     1.008   -1.641265   27.952281  -63.545159
  48 H     1.0000    0     1.008   -6.404905   25.515989  -62.628491
  49 H     1.0000    0     1.008   -5.902597   28.990081  -62.128035
  50 H     1.0000    0     1.008   10.457782  -16.905036   60.579555
  51 H     1.0000    0     1.008   11.220306  -15.152599   69.106963
  52 H     1.0000    0     1.008  -12.969531   16.440674  -70.582027
  53 H     1.0000    0     1.008  -16.835646   22.350963  -65.435150

--------------------------------
INTERNAL COORDINATES (ANGSTROEM)
--------------------------------
 C      0   0   0     0.000000000000     0.00000000     0.00000000
 C      1   0   0     1.395661931630     0.00000000     0.00000000
 C      2   1   0     1.429783722666   114.10187851     0.00000000
 C      3   2   1     1.398325789292   113.69279366     0.00000000
 S      1   2   3     1.658040349901   105.47977031     0.00000000
 H      2   1   3     1.157085130403   119.27017468   206.08727757
 C      3   2   1     1.612095868892   112.59110436   179.31485894
 C      7   3   2     1.765948234490   102.98981441   310.94531320
 C      8   7   3     1.717797865699   143.38741181   176.40791106
 H      9   8   7     1.154726894162   107.14456434   134.82147168
 H      9   8   7     1.152185355357   107.88683221    17.01436897
 H      8   7   3     1.153469611693   101.60551039    56.82903171
 H      8   7   3     1.159128828388   100.81415957   304.15799666
 H      7   3   2     1.149146940691   113.32591829   192.42222820
 H      7   3   2     1.159457092048   110.92106836    66.66977323
 C      9   8   7     1.635861893284   112.97853821   255.25686655
 C     16   9   8     1.691329351664   114.10705834   196.98539757
 C     17  16   9     1.675939644319   114.21745329   272.80925895
 H     18  17  16     1.157576727954   109.21858772   192.64453221
 H     18  17  16     1.157724823652   109.14312836    72.83295736
 H     18  17  16     1.157101619392   109.57461628   312.73647774
 H     17  16   9     1.153560974808   107.97563297   152.40056030
 H     17  16   9     1.152275398462   108.44229313    34.11131356
 H     16   9   8     1.154547231645   109.76722275    75.45308712
 H     16   9   8     1.157833277160   109.58883282   316.19090820
 C      1   2   3    73.333744730957   139.95611718   187.55708440
 C     26   1   2     1.395658728665    71.82772454   211.24946497
 C     27  26   1     1.429762333187   114.10108683   282.42703516
 C     28  27  26     1.398320707492   113.69386613     0.00000000
 S     26   1   2     1.658038623223    83.46596539   102.56583923
 H     27  26   1     1.139334385903   123.72248512   101.99723341
 C     28  27  26     1.610140290410   123.71038514   181.14477119
 C     32  28  27     1.683909815192   116.57650734    49.87469675
 C     33  32  28     1.689724712638   111.44752802   175.06472104
 H     34  33  32     1.159722638091   107.06883193   314.26841533
 H     34  33  32     1.159205222426   106.70552848   199.04083930
 H     33  32  28     1.146991788811   109.09430130   296.22192089
 H     33  32  28     1.152033325777   108.33543383    55.82737528
 H     32  28  27     1.154368272520   115.57610714   175.72713104
 H     32  28  27     1.180345049763   107.02489934   292.40712319
 C     34  33  32     1.623714823761   116.94280705    76.69896427
 C     41  34  33     1.684112294742   115.50804297    82.78170583
 C     42  41  34     1.682359484831   111.87700030   266.33557066
 H     43  42  41     1.156929552479   109.17694221   176.00672947
 H     43  42  41     1.155629289392   109.91057772    55.78902457
 H     43  42  41     1.157871368547   108.99022914   295.70995092
 H     42  41  34     1.151466012264   109.05888604    26.58091444
 H     42  41  34     1.151644364811   108.74026065   146.19015433
 H     41  34  33     1.157530411393   109.41637587   320.88736479
 H     41  34  33     1.159811178167   108.75496935   202.97507116
 H      1   2   3     1.060001380376   127.26040090   179.99978680
 H      4   3   2     1.059998902688   127.20616643   180.00038352
 H     26   1   2     1.060002916883   110.58229273   335.12571633
 H     29  28  27     1.059999068349   127.20610696   179.99965509

---------------------------
INTERNAL COORDINATES (A.U.)
---------------------------
 C      0   0   0     0.000000000000     0.00000000     0.00000000
 C      1   0   0     2.637418826319     0.00000000     0.00000000
 C      2   1   0     2.701899666577   114.10187851     0.00000000
 C      3   2   1     2.642452787762   113.69279366     0.00000000
 S      1   2   3     3.133242180304   105.47977031     0.00000000
 H      2   1   3     2.186574010094   119.27017468   206.08727757
 C      3   2   1     3.046419693832   112.59110436   179.31485894
 C      7   3   2     3.337158529869   102.98981441   310.94531320
 C      8   7   3     3.246167519606   143.38741181   176.40791106
 H      9   8   7     2.182117589439   107.14456434   134.82147168
 H      9   8   7     2.177314777140   107.88683221    17.01436897
 H      8   7   3     2.179741669901   101.60551039    56.82903171
 H      8   7   3     2.190436039586   100.81415957   304.15799666
 H      7   3   2     2.171573005540   113.32591829   192.42222820
 H      7   3   2     2.191056368003   110.92106836    66.66977323
 C      9   8   7     3.091330971225   112.97853821   255.25686655
 C     16   9   8     3.196149276907   114.10705834   196.98539757
 C     17  16   9     3.167066944744   114.21745329   272.80925895
 H     18  17  16     2.187502994833   109.21858772   192.64453221
 H     18  17  16     2.187782855145   109.14312836    72.83295736
 H     18  17  16     2.186605169768   109.57461628   312.73647774
 H     17  16   9     2.179914321166   107.97563297   152.40056030
 H     17  16   9     2.177484933948   108.44229313    34.11131356
 H     16   9   8     2.181778076487   109.76722275    75.45308712
 H     16   9   8     2.187987802574   109.58883282   316.19090820
 C      1   2   3   138.580693916399   139.95611718   187.55708440
 C     26   1   2     2.637412773594    71.82772454   211.24946497
 C     27  26   1     2.701859246319   114.10108683   282.42703516
 C     28  27  26     2.642443184550   113.69386613     0.00000000
 S     26   1   2     3.133238917356    83.46596539   102.56583923
 H     27  26   1     2.153029964315   123.72248512   101.99723341
 C     28  27  26     3.042724186066   123.71038514   181.14477119
 C     32  28  27     3.182128384935   116.57650734    49.87469675
 C     33  32  28     3.193116948605   111.44752802   175.06472104
 H     34  33  32     2.191558177300   107.06883193   314.26841533
 H     34  33  32     2.190580403397   106.70552848   199.04083930
 H     33  32  28     2.167500358709   109.09430130   296.22192089
 H     33  32  28     2.177027482868   108.33543383    55.82737528
 H     32  28  27     2.181439892750   115.57610714   175.72713104
 H     32  28  27     2.230528887582   107.02489934   292.40712319
 C     34  33  32     3.068376336496   116.94280705    76.69896427
 C     41  34  33     3.182511015831   115.50804297    82.78170583
 C     42  41  34     3.179198685135   111.87700030   266.33557066
 H     43  42  41     2.186280010426   109.17694221   176.00672947
 H     43  42  41     2.183822869288   109.91057772    55.78902457
 H     43  42  41     2.188059784862   108.99022914   295.70995092
 H     42  41  34     2.175955415698   109.05888604    26.58091444
 H     42  41  34     2.176292453166   108.74026065   146.19015433
 H     41  34  33     2.187415469218   109.41637587   320.88736479
 H     41  34  33     2.191725493795   108.75496935   202.97507116
 H      1   2   3     2.003112310490   127.26040090   179.99978680
 H      4   3   2     2.003107628338   127.20616643   180.00038352
 H     26   1   2     2.003115214066   110.58229273   335.12571633
 H     29  28  27     2.003107941391   127.20610696   179.99965509

----------------------------
SLATER BASIS SET DIM= 120
----------------------------
  0 C     2 shells
 l=0 nsto= 1
    2       1.625000000000        1.000000000000
 l=1 nsto= 1
    2       1.625000000000        1.000000000000
  1 C     2 shells
 l=0 nsto= 1
    2       1.625000000000        1.000000000000
 l=1 nsto= 1
    2       1.625000000000        1.000000000000
  2 C     2 shells
 l=0 nsto= 1
    2       1.625000000000        1.000000000000
 l=1 nsto= 1
    2       1.625000000000        1.000000000000
  3 C     2 shells
 l=0 nsto= 1
    2       1.625000000000        1.000000000000
 l=1 nsto= 1
    2       1.625000000000        1.000000000000
  4 S     2 shells
 l=0 nsto= 1
    3       1.925000000000        1.000000000000
 l=1 nsto= 1
    3       1.925000000000        1.000000000000
  5 H     1 shells
 l=0 nsto= 1
    1       1.200000000000        1.000000000000
  6 C     2 shells
 l=0 nsto= 1
    2       1.625000000000        1.000000000000
 l=1 nsto= 1
    2       1.625000000000        1.000000000000
  7 C     2 shells
 l=0 nsto= 1
    2       1.625000000000        1.000000000000
 l=1 nsto= 1
    2       1.625000000000        1.000000000000
  8 C     2 shells
 l=0 nsto= 1
    2       1.625000000000        1.000000000000
 l=1 nsto= 1
    2       1.625000000000        1.000000000000
  9 H     1 shells
 l=0 nsto= 1
    1       1.200000000000        1.000000000000
 10 H     1 shells
 l=0 nsto= 1
    1       1.200000000000        1.000000000000
 11 H     1 shells
 l=0 nsto= 1
    1       1.200000000000        1.000000000000
 12 H     1 shells
 l=0 nsto= 1
    1       1.200000000000        1.000000000000
 13 H     1 shells
 l=0 nsto= 1
    1       1.200000000000        1.000000000000
 14 H     1 shells
 l=0 nsto= 1
    1       1.200000000000        1.000000000000
 15 C     2 shells
 l=0 nsto= 1
    2       1.625000000000        1.000000000000
 l=1 nsto= 1
    2       1.625000000000        1.000000000000
 16 C     2 shells
 l=0 nsto= 1
    2       1.625000000000        1.000000000000
 l=1 nsto= 1
    2       1.625000000000        1.000000000000
 17 C     2 shells
 l=0 nsto= 1
    2       1.625000000000        1.000000000000
 l=1 nsto= 1
    2       1.625000000000        1.000000000000
 18 H     1 shells
 l=0 nsto= 1
    1       1.200000000000        1.000000000000
 19 H     1 shells
 l=0 nsto= 1
    1       1.200000000000        1.000000000000
 20 H     1 shells
 l=0 nsto= 1
    1       1.200000000000        1.000000000000
 21 H     1 shells
 l=0 nsto= 1
    1       1.200000000000        1.000000000000
 22 H     1 shells
 l=0 nsto= 1
    1       1.200000000000        1.000000000000
 23 H     1 shells
 l=0 nsto= 1
    1       1.200000000000        1.000000000000
 24 H     1 shells
 l=0 nsto= 1
    1       1.200000000000        1.000000000000
 25 C     2 shells
 l=0 nsto= 1
    2       1.625000000000        1.000000000000
 l=1 nsto= 1
    2       1.625000000000        1.000000000000
 26 C     2 shells
 l=0 nsto= 1
    2       1.625000000000        1.000000000000
 l=1 nsto= 1
    2       1.625000000000        1.000000000000
 27 C     2 shells
 l=0 nsto= 1
    2       1.625000000000        1.000000000000
 l=1 nsto= 1
    2       1.625000000000        1.000000000000
 28 C     2 shells
 l=0 nsto= 1
    2       1.625000000000        1.000000000000
 l=1 nsto= 1
    2       1.625000000000        1.000000000000
 29 S     2 shells
 l=0 nsto= 1
    3       1.925000000000        1.000000000000
 l=1 nsto= 1
    3       1.925000000000        1.000000000000
 30 H     1 shells
 l=0 nsto= 1
    1       1.200000000000        1.000000000000
 31 C     2 shells
 l=0 nsto= 1
    2       1.625000000000        1.000000000000
 l=1 nsto= 1
    2       1.625000000000        1.000000000000
 32 C     2 shells
 l=0 nsto= 1
    2       1.625000000000        1.000000000000
 l=1 nsto= 1
    2       1.625000000000        1.000000000000
 33 C     2 shells
 l=0 nsto= 1
    2       1.625000000000        1.000000000000
 l=1 nsto= 1
    2       1.625000000000        1.000000000000
 34 H     1 shells
 l=0 nsto= 1
    1       1.200000000000        1.000000000000
 35 H     1 shells
 l=0 nsto= 1
    1       1.200000000000        1.000000000000
 36 H     1 shells
 l=0 nsto= 1
    1       1.200000000000        1.000000000000
 37 H     1 shells
 l=0 nsto= 1
    1       1.200000000000        1.000000000000
 38 H     1 shells
 l=0 nsto= 1
    1       1.200000000000        1.000000000000
 39 H     1 shells
 l=0 nsto= 1
    1       1.200000000000        1.000000000000
 40 C     2 shells
 l=0 nsto= 1
    2       1.625000000000        1.000000000000
 l=1 nsto= 1
    2       1.625000000000        1.000000000000
 41 C     2 shells
 l=0 nsto= 1
    2       1.625000000000        1.000000000000
 l=1 nsto= 1
    2       1.625000000000        1.000000000000
 42 C     2 shells
 l=0 nsto= 1
    2       1.625000000000        1.000000000000
 l=1 nsto= 1
    2       1.625000000000        1.000000000000
 43 H     1 shells
 l=0 nsto= 1
    1       1.200000000000        1.000000000000
 44 H     1 shells
 l=0 nsto= 1
    1       1.200000000000        1.000000000000
 45 H     1 shells
 l=0 nsto= 1
    1       1.200000000000        1.000000000000
 46 H     1 shells
 l=0 nsto= 1
    1       1.200000000000        1.000000000000
 47 H     1 shells
 l=0 nsto= 1
    1       1.200000000000        1.000000000000
 48 H     1 shells
 l=0 nsto= 1
    1       1.200000000000        1.000000000000
 49 H     1 shells
 l=0 nsto= 1
    1       1.200000000000        1.000000000000
 50 H     1 shells
 l=0 nsto= 1
    1       1.200000000000        1.000000000000
 51 H     1 shells
 l=0 nsto= 1
    1       1.200000000000        1.000000000000
 52 H     1 shells
 l=0 nsto= 1
    1       1.200000000000        1.000000000000
 53 H     1 shells
 l=0 nsto= 1
    1       1.200000000000        1.000000000000
------------------------------------------------------------------------------
                           ORCA NDO INTEGRAL CALCULATION
------------------------------------------------------------------------------

--------------
NDO PARAMETERS
--------------

Gamma integral treatment              ... Mataga-Nishimoto
Nuclear repulsuion treatment          ... Direct (ZA*ZB/RAB)
Interaction factors:
s-s (sigma) =    1.0000
s-p (sigma) =    1.0000
s-d (sigma) =    1.0000
p-p (sigma) =    1.2670  p-p(pi) =    0.5850
p-d (sigma) =    1.0000  p-d(pi) =    1.0000
d-d (sigma) =    1.0000  d-d(pi) =    1.0000 d-d (delta) =    1.0000

fGamma parameter for Mataga-Nishimoto gamma integrals:    1.2000

--------------------------
Parameters for Element H :
--------------------------
 One-electron parameters (in eV)
  U(s)  =   -13.060000 Beta(s) =    12.000000 Neff(s) =     1.000000
 One-center electron repulsion parameters (in eV)
  G(s,s)=    12.850000
--------------------------
Parameters for Element C :
--------------------------
 One-electron parameters (in eV)
  U(s)  =   -50.870766 Beta(s) =    17.000000 Neff(s) =     2.000000
  U(p)  =   -41.599980 Beta(p) =    17.000000 Neff(p) =     2.000000 
 One-center electron repulsion parameters (in eV)
  G(s,s)=    11.110000
  G(s,p)=    11.110000 G(p,p)  =    11.110000
 Slater-Condon parameters (in eV)
 F2(p,p)=     4.5098 G1(s,p)=    6.8977
--------------------------
Parameters for Element S :
--------------------------
 One-electron parameters (in eV)
  U(s)  =   -69.509597 Beta(s) =    15.000000 Neff(s) =     2.000000
  U(p)  =   -60.725746 Beta(p) =    15.000000 Neff(p) =     4.000000 
 One-center electron repulsion parameters (in eV)
  G(s,s)=    10.090000
  G(s,p)=    10.090000 G(p,p)  =    10.090000
 Slater-Condon parameters (in eV)
 F2(p,p)=     4.5377 G1(s,p)=    3.0756

 Number of atoms                    ....   54
 Number of basis functions          ....  120

 Overlap integrals                  .... done
 One electron matrix                .... done
 Nuclear repulsion                  .... done
 Integral list                      .... done
 Electron-electron repulsion        .... done
-------------------------------------------------------------------------------
                                 ORCA SCF
-------------------------------------------------------------------------------

------------
SCF SETTINGS
------------
Hamiltonian:
 ZDO-Hamiltonian        Method          .... INDO


General Settings:
 Integral files         IntName         .... /home/mattyjones/Software/morphct/tests/output_EZ/donor_polymer/chromophores/input_orca/pair/00015-00022
 Hartree-Fock type      HFTyp           .... RHF
 Total Charge           Charge          ....    0
 Multiplicity           Mult            ....    1
 Number of Electrons    NEL             ....  124
 Basis Dimension        Dim             ....  120
 Nuclear Repulsion      ENuc            ....    619.8633909980 Eh

Convergence Acceleration:
 DIIS                   CNVDIIS         .... on
   Start iteration      DIISMaxIt       ....    12
   Startup error        DIISStart       ....  0.200000
   # of expansion vecs  DIISMaxEq       ....     5
   Bias factor          DIISBfac        ....   1.050
   Max. coefficient     DIISMaxC        ....  10.000
 Newton-Raphson         CNVNR           .... off
 SOSCF                  CNVSOSCF        .... on
   Start iteration      SOSCFMaxIt      ....   150
   Startup grad/error   SOSCFStart      ....  0.003300
 Level Shifting         CNVShift        .... on
   Level shift para.    LevelShift      ....    0.2500
   Turn off err/grad.   ShiftErr        ....    0.0010
 Zerner damping         CNVZerner       .... off
 Static damping         CNVDamp         .... on
   Fraction old density DampFac         ....    0.7000
   Max. Damping (<1)    DampMax         ....    0.9800
   Min. Damping (>=0)   DampMin         ....    0.0000
   Turn off err/grad.   DampErr         ....    0.1000
 Fernandez-Rico         CNVRico         .... off

SCF Procedure:
 Maximum # iterations   MaxIter         ....   125
 SCF integral mode      SCFMode         .... Conventional
 Integral Buffer length BufferLength    .... 1048576
 Integral index format  IndFormat       ....     0
 Integral value format  ValFormat       ....     0
 Integral Storage       Thresh          ....  1.000e-08 Eh

Convergence Tolerance:
 Convergence Check Mode ConvCheckMode   .... Total+1el-Energy
 Convergence forced     ConvForced      .... 0
 Energy Change          TolE            ....  1.000e-06 Eh
 1-El. energy change                    ....  1.000e-03 Eh
 Orbital Gradient       TolG            ....  5.000e-05
 Orbital Rotation angle TolX            ....  5.000e-05
 DIIS Error             TolErr          ....  1.000e-06


Diagonalization of the overlap matrix:
Smallest eigenvalue                        ... 1.693e-01
Time for diagonalization                   ...    0.003 sec
Threshold for overlap eigenvalues          ... 1.000e-08
Number of eigenvalues below threshold      ... 0
Time for construction of square roots      ...    0.000 sec
Total time needed                          ...    0.003 sec

-------------------------------
INITIAL GUESS: EXTENDED HUECKEL
-------------------------------
EHT matrix was read from disk
EHT matrix was diagonalized
Initial density was built
                      ------------------
                      INITIAL GUESS DONE
                      ------------------

 InCore treatment chosen:
   Memory dedicated               ...    1024 MB
   Memory needed                  ...      0 MB
   Number of tiny    integrals    ...       0
   Number of small   integrals    ...       0
   Number of regular integrals    ...    7392

--------------
SCF ITERATIONS
--------------
ITER       Energy         Delta-E        Max-DP      RMS-DP      [F,P]     Damp
  0    -16.9092929445   0.000000000000 0.04576150  0.00144296  0.0980247 0.7000
  1    -16.9510781882  -0.041785243744 0.04539526  0.00136130  0.0710479 0.7000
                               ***Turning on DIIS***
  2    -16.9820010040  -0.030922815811 0.12199331  0.00350187  0.0517155 0.0000
  3    -17.0620151966  -0.080014192558 0.02450545  0.00073819  0.0188933 0.0000
  4    -17.0477103987   0.014304797932 0.01721757  0.00050717  0.0091661 0.0000
  5    -17.0648783587  -0.017167959997 0.01210649  0.00034308  0.0054948 0.0000
  6    -17.0677415975  -0.002863238866 0.00853791  0.00024488  0.0032197 0.0000
                      *** Initiating the SOSCF procedure ***
                           *** Shutting down DIIS ***
                      *** Re-Reading the Fockian *** 
                      *** Removing any level shift *** 
ITER      Energy       Delta-E        Grad      Rot      Max-DP    RMS-DP
  7    -17.06358171   0.0041598922  0.003033  0.003033  0.005190  0.000139
  8    -17.06140414   0.0021775607  0.000865  0.002453  0.002655  0.000065
  9    -17.06141982  -0.0000156733  0.000382  0.002424  0.003056  0.000070
 10    -17.06142566  -0.0000058404  0.000040  0.000094  0.000209  0.000005
                 **** Energy Check signals convergence ****
              ***Rediagonalizing the Fockian in SOSCF/NRSCF***

               *****************************************************
               *                     SUCCESS                       *
               *           SCF CONVERGED AFTER  11 CYCLES          *
               *****************************************************


----------------
TOTAL SCF ENERGY
----------------

Total Energy       :          -17.06142572 Eh            -464.26500 eV

Components:
Nuclear Repulsion  :          619.86339100 Eh           16867.34039 eV
Electronic Energy  :         -636.92481672 Eh          -17331.60538 eV
One Electron Energy:        -1183.46291557 Eh          -32203.66314 eV
Two Electron Energy:          546.53809885 Eh           14872.05775 eV


---------------
SCF CONVERGENCE
---------------

  Last Energy change         ...   -6.1252e-08  Tolerance :   1.0000e-06
  Last MAX-Density change    ...    1.0714e-04  Tolerance :   1.0000e-05
  Last RMS-Density change    ...    1.7382e-06  Tolerance :   1.0000e-06
  Last Orbital Gradient      ...    1.6373e-05  Tolerance :   5.0000e-05
  Last Orbital Rotation      ...    3.4166e-05  Tolerance :   5.0000e-05

             **** THE GBW FILE WAS UPDATED (/home/mattyjones/Software/morphct/tests/output_EZ/donor_polymer/chromophores/input_orca/pair/00015-00022.gbw) ****
             **** DENSITY FILE WAS UPDATED (/home/mattyjones/Software/morphct/tests/output_EZ/donor_polymer/chromophores/input_orca/pair/00015-00022.scfp.tmp) ****
             **** ENERGY FILE WAS UPDATED (/home/mattyjones/Software/morphct/tests/output_EZ/donor_polymer/chromophores/input_orca/pair/00015-00022.en.tmp) ****
----------------
ORBITAL ENERGIES
----------------

  NO   OCC          E(Eh)            E(eV) 
   0   2.0000      -1.567304       -42.6485 
   1   2.0000      -1.557673       -42.3864 
   2   2.0000      -1.416114       -38.5344 
   3   2.0000      -1.397011       -38.0146 
   4   2.0000      -1.294102       -35.2143 
   5   2.0000      -1.289214       -35.0813 
   6   2.0000      -1.188999       -32.3543 
   7   2.0000      -1.175458       -31.9858 
   8   2.0000      -1.120014       -30.4771 
   9   2.0000      -1.115511       -30.3546 
  10   2.0000      -1.041514       -28.3410 
  11   2.0000      -1.024365       -27.8744 
  12   2.0000      -0.950066       -25.8526 
  13   2.0000      -0.946468       -25.7547 
  14   2.0000      -0.912101       -24.8195 
  15   2.0000      -0.893400       -24.3106 
  16   2.0000      -0.866794       -23.5867 
  17   2.0000      -0.859171       -23.3792 
  18   2.0000      -0.836562       -22.7640 
  19   2.0000      -0.831390       -22.6233 
  20   2.0000      -0.775614       -21.1055 
  21   2.0000      -0.773730       -21.0543 
  22   2.0000      -0.737138       -20.0586 
  23   2.0000      -0.729222       -19.8431 
  24   2.0000      -0.711216       -19.3532 
  25   2.0000      -0.690355       -18.7855 
  26   2.0000      -0.675551       -18.3827 
  27   2.0000      -0.658013       -17.9054 
  28   2.0000      -0.657227       -17.8840 
  29   2.0000      -0.641173       -17.4472 
  30   2.0000      -0.619486       -16.8571 
  31   2.0000      -0.609333       -16.5808 
  32   2.0000      -0.590138       -16.0585 
  33   2.0000      -0.581982       -15.8365 
  34   2.0000      -0.575705       -15.6657 
  35   2.0000      -0.574707       -15.6386 
  36   2.0000      -0.573823       -15.6145 
  37   2.0000      -0.569097       -15.4859 
  38   2.0000      -0.555163       -15.1068 
  39   2.0000      -0.553527       -15.0622 
  40   2.0000      -0.545916       -14.8551 
  41   2.0000      -0.526286       -14.3210 
  42   2.0000      -0.515887       -14.0380 
  43   2.0000      -0.513596       -13.9757 
  44   2.0000      -0.505881       -13.7657 
  45   2.0000      -0.498749       -13.5717 
  46   2.0000      -0.496576       -13.5125 
  47   2.0000      -0.492890       -13.4122 
  48   2.0000      -0.491016       -13.3612 
  49   2.0000      -0.484765       -13.1911 
  50   2.0000      -0.483472       -13.1559 
  51   2.0000      -0.474604       -12.9146 
  52   2.0000      -0.471179       -12.8214 
  53   2.0000      -0.465681       -12.6718 
  54   2.0000      -0.465177       -12.6581 
  55   2.0000      -0.449173       -12.2226 
  56   2.0000      -0.437344       -11.9007 
  57   2.0000      -0.428236       -11.6529 
  58   2.0000      -0.356200        -9.6927 
  59   2.0000      -0.345928        -9.4132 
  60   2.0000      -0.304907        -8.2969 
  61   2.0000      -0.304498        -8.2858 
  62   0.0000       0.006594         0.1794 
  63   0.0000       0.008092         0.2202 
  64   0.0000       0.056530         1.5383 
  65   0.0000       0.066493         1.8094 
  66   0.0000       0.070867         1.9284 
  67   0.0000       0.080407         2.1880 
  68   0.0000       0.088207         2.4002 
  69   0.0000       0.091141         2.4801 
  70   0.0000       0.104944         2.8557 
  71   0.0000       0.105145         2.8611 
  72   0.0000       0.108330         2.9478 
  73   0.0000       0.109308         2.9744 
  74   0.0000       0.122332         3.3288 
  75   0.0000       0.123642         3.3645 
  76   0.0000       0.141308         3.8452 
  77   0.0000       0.143060         3.8929 
  78   0.0000       0.156294         4.2530 
  79   0.0000       0.157811         4.2943 
  80   0.0000       0.164820         4.4850 
  81   0.0000       0.167900         4.5688 
  82   0.0000       0.168731         4.5914 
  83   0.0000       0.174787         4.7562 
  84   0.0000       0.200216         5.4482 
  85   0.0000       0.206782         5.6268 
  86   0.0000       0.224425         6.1069 
  87   0.0000       0.230893         6.2829 
  88   0.0000       0.234541         6.3822 
  89   0.0000       0.234759         6.3881 
  90   0.0000       0.235700         6.4137 
  91   0.0000       0.238206         6.4819 
  92   0.0000       0.238554         6.4914 
  93   0.0000       0.238989         6.5032 
  94   0.0000       0.239507         6.5173 
  95   0.0000       0.243083         6.6146 
  96   0.0000       0.243191         6.6176 
  97   0.0000       0.244035         6.6405 
  98   0.0000       0.245253         6.6737 
  99   0.0000       0.246304         6.7023 
 100   0.0000       0.250212         6.8086 
 101   0.0000       0.257066         6.9951 
 102   0.0000       0.261580         7.1179 
 103   0.0000       0.266856         7.2615 
 104   0.0000       0.267266         7.2727 
 105   0.0000       0.269545         7.3347 
 106   0.0000       0.282280         7.6812 
 107   0.0000       0.288247         7.8436 
 108   0.0000       0.302068         8.2197 
 109   0.0000       0.309681         8.4268 
 110   0.0000       0.310514         8.4495 
 111   0.0000       0.311933         8.4881 
 112   0.0000       0.333353         9.0710 
 113   0.0000       0.341897         9.3035 
 114   0.0000       0.351203         9.5567 
 115   0.0000       0.352033         9.5793 
 116   0.0000       0.411724        11.2036 
 117   0.0000       0.421623        11.4730 
 118   0.0000       0.423111        11.5134 
 119   0.0000       0.430985        11.7277 
-------
TIMINGS
-------

Total SCF time: 0 days 0 hours 0 min 0 sec 

Total time                  ....       0.113 sec
Sum of individual times     ....       0.094 sec  ( 83.1%)

Fock matrix formation       ....       0.044 sec  ( 39.1%)
Diagonalization             ....       0.025 sec  ( 22.0%)
Density matrix formation    ....       0.003 sec  (  2.7%)
Population analysis         ....       0.000 sec  (  0.0%)
Initial guess               ....       0.003 sec  (  2.6%)
Orbital Transformation      ....       0.000 sec  (  0.0%)
Orbital Orthonormalization  ....       0.000 sec  (  0.0%)
DIIS solution               ....       0.005 sec  (  4.8%)
SOSCF solution              ....       0.013 sec  ( 11.8%)

-------------------------   --------------------
FINAL SINGLE POINT ENERGY       -17.061425719493
-------------------------   --------------------


                            ***************************************
                            *     ORCA property calculations      *
                            ***************************************

                                    ---------------------
                                    Active property flags
                                    ---------------------
   (+) Dipole Moment


------------------------------------------------------------------------------
                       ORCA ELECTRIC PROPERTIES CALCULATION
------------------------------------------------------------------------------

Dipole Moment Calculation                       ... on
Quadrupole Moment Calculation                   ... off
Polarizability Calculation                      ... off
GBWName                                         ... /home/mattyjones/Software/morphct/tests/output_EZ/donor_polymer/chromophores/input_orca/pair/00015-00022.gbw
Electron density file                           ... /home/mattyjones/Software/morphct/tests/output_EZ/donor_polymer/chromophores/input_orca/pair/00015-00022.scfp.tmp
The origin for moment calculation is the CENTER OF MASS  = (-0.648455,  0.580830 -0.422936)

-------------
DIPOLE MOMENT
-------------
                                X             Y             Z
Electronic contribution:    -72.41499      56.43427     -34.30465
Nuclear contribution   :     39.81005     -33.27734      26.53400
                        -----------------------------------------
Total Dipole Moment    :    -32.60494      23.15693      -7.77064
                        -----------------------------------------
Magnitude (a.u.)       :     40.73952
Magnitude (Debye)      :    103.55162


Timings for individual modules:

Sum of individual times         ...        0.138 sec (=   0.002 min)
STO integral calculation        ...        0.017 sec (=   0.000 min)  12.1 %
SCF iterations                  ...        0.122 sec (=   0.002 min)  87.9 %
                             ****ORCA TERMINATED NORMALLY****
TOTAL RUN TIME: 0 days 0 hours 0 minutes 0 seconds 411 msec

