
                                 *****************
                                 * O   R   C   A *
                                 *****************

           --- An Ab Initio, DFT and Semiempirical electronic structure package ---

                  #######################################################
                  #                        -***-                        #
                  #  Department of molecular theory and spectroscopy    #
                  #              Directorship: Frank Neese              #
                  # Max Planck Institute for Chemical Energy Conversion #
                  #                  D-45470 Muelheim/Ruhr              #
                  #                       Germany                       #
                  #                                                     #
                  #                  All rights reserved                #
                  #                        -***-                        #
                  #######################################################


                         Program Version 4.0.1.2 - RELEASE -


 With contributions from (in alphabetic order):
   Daniel Aravena         : Magnetic Properties
   Michael Atanasov       : Ab Initio Ligand Field Theory
   Ute Becker             : Parallelization
   Martin Brehm           : Molecular dynamics
   Dmytro Bykov           : SCF Hessian
   Vijay G. Chilkuri      : MRCI spin determinant printing
   Dipayan Datta          : RHF DLPNO-CCSD density
   Achintya Kumar Dutta   : EOM-CC, STEOM-CC
   Dmitry Ganyushin       : Spin-Orbit,Spin-Spin,Magnetic field MRCI
   Yang Guo               : DLPNO-NEVPT2, CIM, IAO-localization
   Andreas Hansen         : Spin unrestricted coupled pair/coupled cluster methods
   Lee Huntington         : MR-EOM, pCC
   Robert Izsak           : Overlap fitted RIJCOSX, COSX-SCS-MP3, EOM
   Christian Kollmar      : KDIIS, OOCD, Brueckner-CCSD(T), CCSD density
   Simone Kossmann        : Meta GGA functionals, TD-DFT gradient, OOMP2, MP2 Hessian
   Martin Krupicka        : AUTO-CI
   Dagmar Lenk            : GEPOL surface
   Dimitrios Liakos       : Extrapolation schemes; parallel MDCI
   Dimitrios Manganas     : ROCIS; embedding schemes
   Dimitrios Pantazis     : SARC Basis sets
   Taras Petrenko         : DFT Hessian,TD-DFT gradient, ASA, ECA, R-Raman, ABS, FL, XAS/XES, NRVS
   Peter Pinski           : DLPNO-MP2
   Christoph Reimann      : Effective Core Potentials
   Marius Retegan         : Local ZFS, SOC
   Christoph Riplinger    : Optimizer, TS searches, QM/MM, DLPNO-CCSD(T), (RO)-DLPNO pert. Triples
   Tobias Risthaus        : Range-separated hybrids, TD-DFT gradient, RPA, STAB
   Michael Roemelt        : Restricted open shell CIS
   Masaaki Saitow         : Open-shell DLPNO
   Barbara Sandhoefer     : DKH picture change effects
   Kantharuban Sivalingam : CASSCF convergence, NEVPT2, FIC-MRCI
   Georgi Stoychev        : AutoAux
   Boris Wezisla          : Elementary symmetry handling
   Frank Wennmohs         : Technical directorship


 We gratefully acknowledge several colleagues who have allowed us to
 interface, adapt or use parts of their codes:
   Stefan Grimme, W. Hujo, H. Kruse,             : VdW corrections, initial TS optimization,
                  C. Bannwarth                     DFT functionals, gCP, sTDA/sTD-DF
   Ed Valeev                                     : LibInt (2-el integral package), F12 methods
   Garnet Chan, S. Sharma, J. Yang, R. Olivares  : DMRG
   Ulf Ekstrom                                   : XCFun DFT Library
   Mihaly Kallay                                 : mrcc  (arbitrary order and MRCC methods)
   Andreas Klamt, Michael Diedenhofen            : otool_cosmo (COSMO solvation model)
   Jiri Pittner, Ondrej Demel                    : Mk-CCSD
   Frank Weinhold                                : gennbo (NPA and NBO analysis)
   Christopher J. Cramer and Donald G. Truhlar   : smd solvation model


 Your calculation uses the libint2 library for the computation of 2-el integrals
 For citations please refer to: http://libint.valeyev.net

 This ORCA versions uses:
   CBLAS   interface :  Fast vector & matrix operations
   LAPACKE interface :  Fast linear algebra routines
   SCALAPACK package :  Parallel linear algebra routines


leaving
Your calculation utilizes the basis: def2-SVP
   F. Weigend and R. Ahlrichs, Phys. Chem. Chem. Phys. 7, 3297 (2005).

================================================================================
                                        WARNINGS
                       Please study these warnings very carefully!
================================================================================

Warning: TCutStore was < 0. Adjusted to Thresh (uncritical)

WARNING: Direct SCF is incompatible with Method<>HF and Method<>DFT
  ===> : conventional SCF is chosen

WARNING: The NDO methods need Guess=HUECKEL or Guess=HCORE or Guess=MOREAD
  ===> : Guess is set to Hueckel

WARNING: The NDO methods need %rel::SOCType==1
  ===> : %rel::SOCType is set to 1

WARNING: The NDO methods cannot have frozencore=1
  ===> : %method FrozenCore=0 end

INFO   : the flag for use of LIBINT has been found!

================================================================================
                                       INPUT FILE
================================================================================
NAME = /home/mattyjones/Software/morphct/tests/output_EZ/donor_polymer/chromophores/input_orca/pair/00013-00023.inp
|  1> # ================================================================
|  2> # Orca input file made by Matty Jones
|  3> # ================================================================
|  4> ! ZINDO/S 
|  5> ! NOPOP
|  6> ! NOMOPRINT
|  7> * xyz 0   1
|  8>  C  -14.36243  -8.42321  6.55064
|  9>  C  -12.97924  -8.23722  6.56074
| 10>  C  -12.30855  -8.90222  7.63416
| 11>  C  -13.16646  -9.61691  8.47590
| 12>  S  -14.68829  -9.39159  7.85645
| 13>  H  -12.42141  -7.73497  5.70221
| 14>  C  -10.70525  -8.73403  7.72408
| 15>  C  -10.24906  -7.09958  7.53453
| 16>  C  -8.63063  -6.62837  7.52234
| 17>  H  -8.57776  -5.60246  8.05850
| 18>  H  -8.05020  -7.40078  8.16076
| 19>  H  -10.70799  -6.71997  6.54887
| 20>  H  -10.74784  -6.53637  8.41321
| 21>  H  -10.30522  -9.05551  8.76628
| 22>  H  -10.17923  -9.36147  6.90651
| 23>  C  -7.90033  -6.49111  6.06799
| 24>  C  -8.73420  -6.87047  4.64178
| 25>  C  -9.54847  -5.59600  3.89912
| 26>  H  -8.99968  -5.31120  2.92014
| 27>  H  -9.57585  -4.68188  4.60739
| 28>  H  -10.62989  -5.92716  3.65154
| 29>  H  -7.95327  -7.26491  3.88741
| 30>  H  -9.49139  -7.70761  4.86847
| 31>  H  -7.55070  -5.39162  5.94747
| 32>  H  -6.95774  -7.16643  6.07558
| 33>  C  14.56723  7.20112  -8.97474
| 34>  C  13.67442  6.21534  -8.55165
| 35>  C  12.61583  6.70292  -7.72344
| 36>  C  12.67304  8.08067  -7.49138
| 37>  S  14.01155  8.61554  -8.31159
| 38>  H  13.88537  5.11832  -8.19781
| 39>  C  11.53474  5.61859  -7.20842
| 40>  C  9.90442  5.83061  -6.77961
| 41>  C  9.14126  7.30077  -6.46280
| 42>  H  9.71305  8.16651  -6.95780
| 43>  H  8.06107  7.26703  -6.86466
| 44>  H  9.30289  5.38042  -7.66570
| 45>  H  9.73562  5.14707  -5.86105
| 46>  H  11.99370  5.11053  -6.25644
| 47>  H  11.47221  4.78056  -8.02897
| 48>  C  9.15275  7.41886  -4.83768
| 49>  C  8.44116  8.76169  -4.14906
| 50>  C  7.67960  9.83781  -5.18811
| 51>  H  7.13786  9.24592  -6.02328
| 52>  H  8.47298  10.53524  -5.66198
| 53>  H  6.89855  10.47618  -4.62623
| 54>  H  7.73283  8.37672  -3.33722
| 55>  H  9.31507  9.27813  -3.63991
| 56>  H  8.59061  6.49869  -4.40118
| 57>  H  10.24905  7.36611  -4.46443
| 58>  H  -15.05796  -8.02858  5.85486
| 59>  H  -12.89993  -10.18396  9.33089
| 60>  H  15.42061  7.07266  -9.59023
| 61>  H  12.00150  8.66158  -6.91244
| 62> *
| 63> 
| 64>                          ****END OF INPUT****
================================================================================

                       ****************************
                       * Single Point Calculation *
                       ****************************

---------------------------------
CARTESIAN COORDINATES (ANGSTROEM)
---------------------------------
  C    -14.362430   -8.423210    6.550640
  C    -12.979240   -8.237220    6.560740
  C    -12.308550   -8.902220    7.634160
  C    -13.166460   -9.616910    8.475900
  S    -14.688290   -9.391590    7.856450
  H    -12.421410   -7.734970    5.702210
  C    -10.705250   -8.734030    7.724080
  C    -10.249060   -7.099580    7.534530
  C     -8.630630   -6.628370    7.522340
  H     -8.577760   -5.602460    8.058500
  H     -8.050200   -7.400780    8.160760
  H    -10.707990   -6.719970    6.548870
  H    -10.747840   -6.536370    8.413210
  H    -10.305220   -9.055510    8.766280
  H    -10.179230   -9.361470    6.906510
  C     -7.900330   -6.491110    6.067990
  C     -8.734200   -6.870470    4.641780
  C     -9.548470   -5.596000    3.899120
  H     -8.999680   -5.311200    2.920140
  H     -9.575850   -4.681880    4.607390
  H    -10.629890   -5.927160    3.651540
  H     -7.953270   -7.264910    3.887410
  H     -9.491390   -7.707610    4.868470
  H     -7.550700   -5.391620    5.947470
  H     -6.957740   -7.166430    6.075580
  C     14.567230    7.201120   -8.974740
  C     13.674420    6.215340   -8.551650
  C     12.615830    6.702920   -7.723440
  C     12.673040    8.080670   -7.491380
  S     14.011550    8.615540   -8.311590
  H     13.885370    5.118320   -8.197810
  C     11.534740    5.618590   -7.208420
  C      9.904420    5.830610   -6.779610
  C      9.141260    7.300770   -6.462800
  H      9.713050    8.166510   -6.957800
  H      8.061070    7.267030   -6.864660
  H      9.302890    5.380420   -7.665700
  H      9.735620    5.147070   -5.861050
  H     11.993700    5.110530   -6.256440
  H     11.472210    4.780560   -8.028970
  C      9.152750    7.418860   -4.837680
  C      8.441160    8.761690   -4.149060
  C      7.679600    9.837810   -5.188110
  H      7.137860    9.245920   -6.023280
  H      8.472980   10.535240   -5.661980
  H      6.898550   10.476180   -4.626230
  H      7.732830    8.376720   -3.337220
  H      9.315070    9.278130   -3.639910
  H      8.590610    6.498690   -4.401180
  H     10.249050    7.366110   -4.464430
  H    -15.057960   -8.028580    5.854860
  H    -12.899930  -10.183960    9.330890
  H     15.420610    7.072660   -9.590230
  H     12.001500    8.661580   -6.912440

----------------------------
CARTESIAN COORDINATES (A.U.)
----------------------------
  NO LB      ZA    FRAG     MASS         X           Y           Z
   0 C     4.0000    0    12.011  -27.141059  -15.917560   12.378916
   1 C     4.0000    0    12.011  -24.527209  -15.566090   12.398002
   2 C     4.0000    0    12.011  -23.259789  -16.822758   14.426472
   3 C     4.0000    0    12.011  -24.881004  -18.173326   16.017130
   4 S     6.0000    0    32.060  -27.756845  -17.747533   14.846539
   5 H     1.0000    0     1.008  -23.473063  -14.616975   10.775615
   6 C     4.0000    0    12.011  -20.229991  -16.504925   14.596396
   7 C     4.0000    0    12.011  -19.367917  -13.416262   14.238198
   8 C     4.0000    0    12.011  -16.309527  -12.525804   14.215162
   9 H     1.0000    0     1.008  -16.209617  -10.587115   15.228358
  10 H     1.0000    0     1.008  -15.212673  -13.985447   15.421601
  11 H     1.0000    0     1.008  -20.235169  -12.698903   12.375571
  12 H     1.0000    0     1.008  -20.310474  -12.351949   15.898663
  13 H     1.0000    0     1.008  -19.474044  -17.112434   16.565868
  14 H     1.0000    0     1.008  -19.235957  -17.690615   13.051412
  15 C     4.0000    0    12.011  -14.929460  -12.266420   11.466839
  16 C     4.0000    0    12.011  -16.505246  -12.983307    8.771693
  17 C     4.0000    0    12.011  -18.043993  -10.574907    7.368269
  18 H     1.0000    0     1.008  -17.006930  -10.036713    5.518265
  19 H     1.0000    0     1.008  -18.095734   -8.847471    8.706705
  20 H     1.0000    0     1.008  -20.087581  -11.200709    6.900411
  21 H     1.0000    0     1.008  -15.029502  -13.728690    7.346140
  22 H     1.0000    0     1.008  -17.936128  -14.565272    9.200075
  23 H     1.0000    0     1.008  -14.268755  -10.188685   11.239089
  24 H     1.0000    0     1.008  -13.148223  -13.542590   11.481182
  25 C     4.0000    0    12.011   27.528075   13.608145  -16.959801
  26 C     4.0000    0    12.011   25.840909   11.745290  -16.160276
  27 C     4.0000    0    12.011   23.840464   12.666683  -14.595186
  28 C     4.0000    0    12.011   23.948575   15.270253  -14.156657
  29 S     6.0000    0    32.060   26.477992   16.281011  -15.706629
  30 H     1.0000    0     1.008   26.239547    9.672223  -15.491616
  31 C     4.0000    0    12.011   21.797500   10.617596  -13.621940
  32 C     4.0000    0    12.011   18.716641   11.018256  -12.811606
  33 C     4.0000    0    12.011   17.274478   13.796456  -12.212922
  34 H     1.0000    0     1.008   18.355004   15.432467  -13.148336
  35 H     1.0000    0     1.008   15.233215   13.732697  -12.972327
  36 H     1.0000    0     1.008   17.579914   10.167520  -14.486074
  37 H     1.0000    0     1.008   18.397656    9.726553  -11.075779
  38 H     1.0000    0     1.008   22.664808    9.657502  -11.822958
  39 H     1.0000    0     1.008   21.679335    9.033949  -15.172554
  40 C     4.0000    0    12.011   17.296191   14.019614   -9.141890
  41 C     4.0000    0    12.011   15.951481   16.557195   -7.840587
  42 C     4.0000    0    12.011   14.512341   18.590767   -9.804107
  43 H     1.0000    0     1.008   13.488601   17.472257  -11.382350
  44 H     1.0000    0     1.008   16.011612   19.908718  -10.699592
  45 H     1.0000    0     1.008   13.036370   19.797111   -8.742308
  46 H     1.0000    0     1.008   14.612931   15.829707   -6.306432
  47 H     1.0000    0     1.008   17.602931   17.533125   -6.878433
  48 H     1.0000    0     1.008   16.233900   12.280744   -8.317025
  49 H     1.0000    0     1.008   19.367898   13.919931   -8.436550
  50 H     1.0000    0     1.008  -28.455421  -15.171817   11.064082
  51 H     1.0000    0     1.008  -24.377335  -19.244895   17.632827
  52 H     1.0000    0     1.008   29.140730   13.365390  -18.122908
  53 H     1.0000    0     1.008   22.679548   16.368014  -13.062619

--------------------------------
INTERNAL COORDINATES (ANGSTROEM)
--------------------------------
 C      0   0   0     0.000000000000     0.00000000     0.00000000
 C      1   0   0     1.395675057526     0.00000000     0.00000000
 C      2   1   0     1.429783400554   114.10066491     0.00000000
 C      3   2   1     1.398326711395   113.69379752     0.00000000
 S      1   2   3     1.658036284313   105.48036183     0.00000000
 H      2   1   3     1.140396041864   122.54906271   171.14333022
 C      3   2   1     1.614603472218   117.33310512   180.25540944
 C      7   3   2     1.707473373467   111.02852720    46.76453049
 C      8   7   3     1.685675865966   121.66150477   182.45160855
 H      9   8   7     1.158772674255   106.73503744   216.27183730
 H      9   8   7     1.158057118367   106.90470320   331.89887321
 H      8   7   3     1.151627601528   107.70255689   305.64210050
 H      8   7   3     1.156747826840   105.45844664    61.38944668
 H      7   3   2     1.161703159719   111.28906026   164.35259420
 H      7   3   2     1.157064690888   110.82991567   285.95900039
 C      9   8   7     1.633190840074   117.33912110    94.37754653
 C     16   9   8     1.695089422597   120.69453583   357.66034921
 C     17  16   9     1.684889696508   116.06020285    91.16644151
 H     18  17  16     1.157878812527   109.24882605   109.15922288
 H     18  17  16     1.156724440694   109.83515856   348.98317131
 H     18  17  16     1.157770278769   109.22665535   228.79637813
 H     17  16   9     1.155209364315   107.05549037   210.90298313
 H     17  16   9     1.151315956547   108.69891173   328.45921114
 H     16   9   8     1.160019166824   107.87559039   119.32922100
 H     16   9   8     1.159564840188   107.98177405   235.72489276
 C     19  18  17    29.213790732202   146.29981185   287.86428710
 C     26  19  18     1.395663660271    19.60998355   105.72393535
 C     27  26  19     1.429782797700   114.10184757   350.77325958
 C     28  27  26     1.398327533234   113.69310736     0.00000000
 S     26  19  18     1.658050699255    86.11001415   294.63415686
 H     27  26  19     1.171817190734   129.61387499   210.86005034
 C     28  27  26     1.615479104600   116.82357798   179.39180726
 C     32  28  27     1.699050852358   129.70517849   207.15017647
 C     33  32  28     1.686461439613   126.18606912   344.92888183
 H     34  33  32     1.149554066454   110.52046466    22.38297627
 H     34  33  32     1.153013565965   109.44841907   143.36988757
 H     33  32  28     1.161750775812   104.83168284   105.59340281
 H     33  32  28     1.157355971687   105.45955467   218.93805015
 H     32  28  27     1.172618934522   106.72076175    83.47646158
 H     32  28  27     1.174523982003   106.96685883   330.14281303
 C     34  33  32     1.629445391107   104.32031809   262.06516147
 C     41  34  33     1.668457443689   117.83674223   181.12150910
 C     42  41  34     1.678580588027   116.99977063     3.88614713
 H     43  42  41     1.158155830879   109.32708001    38.31488915
 H     43  42  41     1.157762154417   109.18651535   278.58143152
 H     43  42  41     1.154670729602   111.10662564   158.01917677
 H     42  41  34     1.144123015851   106.62456095   130.06168874
 H     42  41  34     1.135633164451   102.87617530   243.73496953
 H     41  34  33     1.163291218268   108.27020904   301.29508691
 H     41  34  33     1.159297983695   108.93395914    57.87464610
 H      1   2   3     1.060002182168   127.25959012   180.00014584
 H      4   3   2     1.059996152587   127.20660178   180.00024042
 H     26  19  18     1.059994026445   146.50971748   119.09563426
 H     29  28  27     1.059997133628   127.20620936   179.99999759

---------------------------
INTERNAL COORDINATES (A.U.)
---------------------------
 C      0   0   0     0.000000000000     0.00000000     0.00000000
 C      1   0   0     2.637443630669     0.00000000     0.00000000
 C      2   1   0     2.701899057874   114.10066491     0.00000000
 C      3   2   1     2.642454530283   113.69379752     0.00000000
 S      1   2   3     3.133234497457   105.48036183     0.00000000
 H      2   1   3     2.155036203332   122.54906271   171.14333022
 C      3   2   1     3.051158377371   117.33310512   180.25540944
 C      7   3   2     3.226657056816   111.02852720    46.76453049
 C      8   7   3     3.185465737236   121.66150477   182.45160855
 H      9   8   7     2.189763005813   106.73503744   216.27183730
 H      9   8   7     2.188410801151   106.90470320   331.89887321
 H      8   7   3     2.176260775152   107.70255689   305.64210050
 H      8   7   3     2.185936598737   105.45844664    61.38944668
 H      7   3   2     2.195300820779   111.28906026   164.35259420
 H      7   3   2     2.186535385009   110.82991567   285.95900039
 C      9   8   7     3.086283412168   117.33912110    94.37754653
 C     16   9   8     3.203254781215   120.69453583   357.66034921
 C     17  16   9     3.183980092266   116.06020285    91.16644151
 H     18  17  16     2.188073851947   109.24882605   109.15922288
 H     18  17  16     2.185892405326   109.83515856   348.98317131
 H     18  17  16     2.187868752866   109.22665535   228.79637813
 H     17  16   9     2.183029325896   107.05549037   210.90298313
 H     17  16   9     2.175671851488   108.69891173   328.45921114
 H     16   9   8     2.192118535398   107.87559039   119.32922100
 H     16   9   8     2.191259982479   107.98177405   235.72489276
 C     19  18  17    55.206063817549   146.29981185   287.86428710
 C     26  19  18     2.637422092978    19.60998355   105.72393535
 C     27  26  19     2.701897918645   114.10184757   350.77325958
 C     28  27  26     2.642456083334   113.69310736     0.00000000
 S     26  19  18     3.133261737749    86.11001415   294.63415686
 H     27  26  19     2.214413569508   129.61387499   210.86005034
 C     28  27  26     3.052813082767   116.82357798   179.39180726
 C     32  28  27     3.210740798563   129.70517849   207.15017647
 C     33  32  28     3.186950256286   126.18606912   344.92888183
 H     34  33  32     2.172342361733   110.52046466    22.38297627
 H     34  33  32     2.178879868370   109.44841907   143.36988757
 H     33  32  28     2.195390802155   104.83168284   105.59340281
 H     33  32  28     2.187085825947   105.45955467   218.93805015
 H     32  28  27     2.215928645698   106.72076175    83.47646158
 H     32  28  27     2.219528663708   106.96685883   330.14281303
 C     34  33  32     3.079205539373   104.32031809   262.06516147
 C     41  34  33     3.152927634674   117.83674223   181.12150910
 C     42  41  34     3.172057605087   116.99977063     3.88614713
 H     43  42  41     2.188597340766   109.32708001    38.31488915
 H     43  42  41     2.187853400067   109.18651535   278.58143152
 H     43  42  41     2.182011453803   111.10662564   158.01917677
 H     42  41  34     2.162079163474   106.62456095   130.06168874
 H     42  41  34     2.146035669410   102.87617530   243.73496953
 H     41  34  33     2.198301816523   108.27020904   301.29508691
 H     41  34  33     2.190755696791   108.93395914    57.87464610
 H      1   2   3     2.003113825656   127.25959012   180.00014584
 H      4   3   2     2.003102431400   127.20660178   180.00024042
 H     26  19  18     2.003098413574   146.50971748   119.09563426
 H     29  28  27     2.003104285299   127.20620936   179.99999759

----------------------------
SLATER BASIS SET DIM= 120
----------------------------
  0 C     2 shells
 l=0 nsto= 1
    2       1.625000000000        1.000000000000
 l=1 nsto= 1
    2       1.625000000000        1.000000000000
  1 C     2 shells
 l=0 nsto= 1
    2       1.625000000000        1.000000000000
 l=1 nsto= 1
    2       1.625000000000        1.000000000000
  2 C     2 shells
 l=0 nsto= 1
    2       1.625000000000        1.000000000000
 l=1 nsto= 1
    2       1.625000000000        1.000000000000
  3 C     2 shells
 l=0 nsto= 1
    2       1.625000000000        1.000000000000
 l=1 nsto= 1
    2       1.625000000000        1.000000000000
  4 S     2 shells
 l=0 nsto= 1
    3       1.925000000000        1.000000000000
 l=1 nsto= 1
    3       1.925000000000        1.000000000000
  5 H     1 shells
 l=0 nsto= 1
    1       1.200000000000        1.000000000000
  6 C     2 shells
 l=0 nsto= 1
    2       1.625000000000        1.000000000000
 l=1 nsto= 1
    2       1.625000000000        1.000000000000
  7 C     2 shells
 l=0 nsto= 1
    2       1.625000000000        1.000000000000
 l=1 nsto= 1
    2       1.625000000000        1.000000000000
  8 C     2 shells
 l=0 nsto= 1
    2       1.625000000000        1.000000000000
 l=1 nsto= 1
    2       1.625000000000        1.000000000000
  9 H     1 shells
 l=0 nsto= 1
    1       1.200000000000        1.000000000000
 10 H     1 shells
 l=0 nsto= 1
    1       1.200000000000        1.000000000000
 11 H     1 shells
 l=0 nsto= 1
    1       1.200000000000        1.000000000000
 12 H     1 shells
 l=0 nsto= 1
    1       1.200000000000        1.000000000000
 13 H     1 shells
 l=0 nsto= 1
    1       1.200000000000        1.000000000000
 14 H     1 shells
 l=0 nsto= 1
    1       1.200000000000        1.000000000000
 15 C     2 shells
 l=0 nsto= 1
    2       1.625000000000        1.000000000000
 l=1 nsto= 1
    2       1.625000000000        1.000000000000
 16 C     2 shells
 l=0 nsto= 1
    2       1.625000000000        1.000000000000
 l=1 nsto= 1
    2       1.625000000000        1.000000000000
 17 C     2 shells
 l=0 nsto= 1
    2       1.625000000000        1.000000000000
 l=1 nsto= 1
    2       1.625000000000        1.000000000000
 18 H     1 shells
 l=0 nsto= 1
    1       1.200000000000        1.000000000000
 19 H     1 shells
 l=0 nsto= 1
    1       1.200000000000        1.000000000000
 20 H     1 shells
 l=0 nsto= 1
    1       1.200000000000        1.000000000000
 21 H     1 shells
 l=0 nsto= 1
    1       1.200000000000        1.000000000000
 22 H     1 shells
 l=0 nsto= 1
    1       1.200000000000        1.000000000000
 23 H     1 shells
 l=0 nsto= 1
    1       1.200000000000        1.000000000000
 24 H     1 shells
 l=0 nsto= 1
    1       1.200000000000        1.000000000000
 25 C     2 shells
 l=0 nsto= 1
    2       1.625000000000        1.000000000000
 l=1 nsto= 1
    2       1.625000000000        1.000000000000
 26 C     2 shells
 l=0 nsto= 1
    2       1.625000000000        1.000000000000
 l=1 nsto= 1
    2       1.625000000000        1.000000000000
 27 C     2 shells
 l=0 nsto= 1
    2       1.625000000000        1.000000000000
 l=1 nsto= 1
    2       1.625000000000        1.000000000000
 28 C     2 shells
 l=0 nsto= 1
    2       1.625000000000        1.000000000000
 l=1 nsto= 1
    2       1.625000000000        1.000000000000
 29 S     2 shells
 l=0 nsto= 1
    3       1.925000000000        1.000000000000
 l=1 nsto= 1
    3       1.925000000000        1.000000000000
 30 H     1 shells
 l=0 nsto= 1
    1       1.200000000000        1.000000000000
 31 C     2 shells
 l=0 nsto= 1
    2       1.625000000000        1.000000000000
 l=1 nsto= 1
    2       1.625000000000        1.000000000000
 32 C     2 shells
 l=0 nsto= 1
    2       1.625000000000        1.000000000000
 l=1 nsto= 1
    2       1.625000000000        1.000000000000
 33 C     2 shells
 l=0 nsto= 1
    2       1.625000000000        1.000000000000
 l=1 nsto= 1
    2       1.625000000000        1.000000000000
 34 H     1 shells
 l=0 nsto= 1
    1       1.200000000000        1.000000000000
 35 H     1 shells
 l=0 nsto= 1
    1       1.200000000000        1.000000000000
 36 H     1 shells
 l=0 nsto= 1
    1       1.200000000000        1.000000000000
 37 H     1 shells
 l=0 nsto= 1
    1       1.200000000000        1.000000000000
 38 H     1 shells
 l=0 nsto= 1
    1       1.200000000000        1.000000000000
 39 H     1 shells
 l=0 nsto= 1
    1       1.200000000000        1.000000000000
 40 C     2 shells
 l=0 nsto= 1
    2       1.625000000000        1.000000000000
 l=1 nsto= 1
    2       1.625000000000        1.000000000000
 41 C     2 shells
 l=0 nsto= 1
    2       1.625000000000        1.000000000000
 l=1 nsto= 1
    2       1.625000000000        1.000000000000
 42 C     2 shells
 l=0 nsto= 1
    2       1.625000000000        1.000000000000
 l=1 nsto= 1
    2       1.625000000000        1.000000000000
 43 H     1 shells
 l=0 nsto= 1
    1       1.200000000000        1.000000000000
 44 H     1 shells
 l=0 nsto= 1
    1       1.200000000000        1.000000000000
 45 H     1 shells
 l=0 nsto= 1
    1       1.200000000000        1.000000000000
 46 H     1 shells
 l=0 nsto= 1
    1       1.200000000000        1.000000000000
 47 H     1 shells
 l=0 nsto= 1
    1       1.200000000000        1.000000000000
 48 H     1 shells
 l=0 nsto= 1
    1       1.200000000000        1.000000000000
 49 H     1 shells
 l=0 nsto= 1
    1       1.200000000000        1.000000000000
 50 H     1 shells
 l=0 nsto= 1
    1       1.200000000000        1.000000000000
 51 H     1 shells
 l=0 nsto= 1
    1       1.200000000000        1.000000000000
 52 H     1 shells
 l=0 nsto= 1
    1       1.200000000000        1.000000000000
 53 H     1 shells
 l=0 nsto= 1
    1       1.200000000000        1.000000000000
------------------------------------------------------------------------------
                           ORCA NDO INTEGRAL CALCULATION
------------------------------------------------------------------------------

--------------
NDO PARAMETERS
--------------

Gamma integral treatment              ... Mataga-Nishimoto
Nuclear repulsuion treatment          ... Direct (ZA*ZB/RAB)
Interaction factors:
s-s (sigma) =    1.0000
s-p (sigma) =    1.0000
s-d (sigma) =    1.0000
p-p (sigma) =    1.2670  p-p(pi) =    0.5850
p-d (sigma) =    1.0000  p-d(pi) =    1.0000
d-d (sigma) =    1.0000  d-d(pi) =    1.0000 d-d (delta) =    1.0000

fGamma parameter for Mataga-Nishimoto gamma integrals:    1.2000

--------------------------
Parameters for Element H :
--------------------------
 One-electron parameters (in eV)
  U(s)  =   -13.060000 Beta(s) =    12.000000 Neff(s) =     1.000000
 One-center electron repulsion parameters (in eV)
  G(s,s)=    12.850000
--------------------------
Parameters for Element C :
--------------------------
 One-electron parameters (in eV)
  U(s)  =   -50.870766 Beta(s) =    17.000000 Neff(s) =     2.000000
  U(p)  =   -41.599980 Beta(p) =    17.000000 Neff(p) =     2.000000 
 One-center electron repulsion parameters (in eV)
  G(s,s)=    11.110000
  G(s,p)=    11.110000 G(p,p)  =    11.110000
 Slater-Condon parameters (in eV)
 F2(p,p)=     4.5098 G1(s,p)=    6.8977
--------------------------
Parameters for Element S :
--------------------------
 One-electron parameters (in eV)
  U(s)  =   -69.509597 Beta(s) =    15.000000 Neff(s) =     2.000000
  U(p)  =   -60.725746 Beta(p) =    15.000000 Neff(p) =     4.000000 
 One-center electron repulsion parameters (in eV)
  G(s,s)=    10.090000
  G(s,p)=    10.090000 G(p,p)  =    10.090000
 Slater-Condon parameters (in eV)
 F2(p,p)=     4.5377 G1(s,p)=    3.0756

 Number of atoms                    ....   54
 Number of basis functions          ....  120

 Overlap integrals                  .... done
 One electron matrix                .... done
 Nuclear repulsion                  .... done
 Integral list                      .... done
 Electron-electron repulsion        .... done
-------------------------------------------------------------------------------
                                 ORCA SCF
-------------------------------------------------------------------------------

------------
SCF SETTINGS
------------
Hamiltonian:
 ZDO-Hamiltonian        Method          .... INDO


General Settings:
 Integral files         IntName         .... /home/mattyjones/Software/morphct/tests/output_EZ/donor_polymer/chromophores/input_orca/pair/00013-00023
 Hartree-Fock type      HFTyp           .... RHF
 Total Charge           Charge          ....    0
 Multiplicity           Mult            ....    1
 Number of Electrons    NEL             ....  124
 Basis Dimension        Dim             ....  120
 Nuclear Repulsion      ENuc            ....    671.2826060246 Eh

Convergence Acceleration:
 DIIS                   CNVDIIS         .... on
   Start iteration      DIISMaxIt       ....    12
   Startup error        DIISStart       ....  0.200000
   # of expansion vecs  DIISMaxEq       ....     5
   Bias factor          DIISBfac        ....   1.050
   Max. coefficient     DIISMaxC        ....  10.000
 Newton-Raphson         CNVNR           .... off
 SOSCF                  CNVSOSCF        .... on
   Start iteration      SOSCFMaxIt      ....   150
   Startup grad/error   SOSCFStart      ....  0.003300
 Level Shifting         CNVShift        .... on
   Level shift para.    LevelShift      ....    0.2500
   Turn off err/grad.   ShiftErr        ....    0.0010
 Zerner damping         CNVZerner       .... off
 Static damping         CNVDamp         .... on
   Fraction old density DampFac         ....    0.7000
   Max. Damping (<1)    DampMax         ....    0.9800
   Min. Damping (>=0)   DampMin         ....    0.0000
   Turn off err/grad.   DampErr         ....    0.1000
 Fernandez-Rico         CNVRico         .... off

SCF Procedure:
 Maximum # iterations   MaxIter         ....   125
 SCF integral mode      SCFMode         .... Conventional
 Integral Buffer length BufferLength    .... 1048576
 Integral index format  IndFormat       ....     0
 Integral value format  ValFormat       ....     0
 Integral Storage       Thresh          ....  1.000e-08 Eh

Convergence Tolerance:
 Convergence Check Mode ConvCheckMode   .... Total+1el-Energy
 Convergence forced     ConvForced      .... 0
 Energy Change          TolE            ....  1.000e-06 Eh
 1-El. energy change                    ....  1.000e-03 Eh
 Orbital Gradient       TolG            ....  5.000e-05
 Orbital Rotation angle TolX            ....  5.000e-05
 DIIS Error             TolErr          ....  1.000e-06


Diagonalization of the overlap matrix:
Smallest eigenvalue                        ... 1.689e-01
Time for diagonalization                   ...    0.003 sec
Threshold for overlap eigenvalues          ... 1.000e-08
Number of eigenvalues below threshold      ... 0
Time for construction of square roots      ...    0.000 sec
Total time needed                          ...    0.003 sec

-------------------------------
INITIAL GUESS: EXTENDED HUECKEL
-------------------------------
EHT matrix was read from disk
EHT matrix was diagonalized
Initial density was built
                      ------------------
                      INITIAL GUESS DONE
                      ------------------

 InCore treatment chosen:
   Memory dedicated               ...    1024 MB
   Memory needed                  ...      0 MB
   Number of tiny    integrals    ...       0
   Number of small   integrals    ...       0
   Number of regular integrals    ...    7392

--------------
SCF ITERATIONS
--------------
ITER       Energy         Delta-E        Max-DP      RMS-DP      [F,P]     Damp
  0    -19.6053213412   0.000000000000 0.04382922  0.00146768  0.1038622 0.7000
  1    -19.6482365723  -0.042915231112 0.04149205  0.00138496  0.0712458 0.7000
                               ***Turning on DIIS***
  2    -19.6799490587  -0.031712486437 0.10543289  0.00355700  0.0458953 0.0000
  3    -19.7631090724  -0.083160013643 0.01729551  0.00073368  0.0187367 0.0000
  4    -19.7475386902   0.015570382221 0.01205760  0.00051211  0.0076019 0.0000
  5    -19.7649814006  -0.017442710423 0.00834143  0.00034681  0.0043621 0.0000
  6    -19.7668520639  -0.001870663371 0.00628899  0.00024748  0.0023161 0.0000
                      *** Initiating the SOSCF procedure ***
                           *** Shutting down DIIS ***
                      *** Re-Reading the Fockian *** 
                      *** Removing any level shift *** 
ITER      Energy       Delta-E        Grad      Rot      Max-DP    RMS-DP
  7    -19.76316366   0.0036884037  0.003155  0.003155  0.003847  0.000142
  8    -19.76118365   0.0019800095  0.000920  0.002610  0.001935  0.000067
  9    -19.76120050  -0.0000168488  0.000399  0.002576  0.002332  0.000074
 10    -19.76120693  -0.0000064308  0.000042  0.000093  0.000151  0.000005
                 **** Energy Check signals convergence ****
              ***Rediagonalizing the Fockian in SOSCF/NRSCF***

               *****************************************************
               *                     SUCCESS                       *
               *           SCF CONVERGED AFTER  11 CYCLES          *
               *****************************************************


----------------
TOTAL SCF ENERGY
----------------

Total Energy       :          -19.76120700 Eh            -537.72978 eV

Components:
Nuclear Repulsion  :          671.28260602 Eh           18266.52836 eV
Electronic Energy  :         -691.04381303 Eh          -18804.25814 eV
One Electron Energy:        -1291.65576697 Eh          -35147.74030 eV
Two Electron Energy:          600.61195395 Eh           16343.48215 eV


---------------
SCF CONVERGENCE
---------------

  Last Energy change         ...   -7.0393e-08  Tolerance :   1.0000e-06
  Last MAX-Density change    ...    6.9864e-05  Tolerance :   1.0000e-05
  Last RMS-Density change    ...    1.8695e-06  Tolerance :   1.0000e-06
  Last Orbital Gradient      ...    2.2956e-05  Tolerance :   5.0000e-05
  Last Orbital Rotation      ...    4.2178e-05  Tolerance :   5.0000e-05

             **** THE GBW FILE WAS UPDATED (/home/mattyjones/Software/morphct/tests/output_EZ/donor_polymer/chromophores/input_orca/pair/00013-00023.gbw) ****
             **** DENSITY FILE WAS UPDATED (/home/mattyjones/Software/morphct/tests/output_EZ/donor_polymer/chromophores/input_orca/pair/00013-00023.scfp.tmp) ****
             **** ENERGY FILE WAS UPDATED (/home/mattyjones/Software/morphct/tests/output_EZ/donor_polymer/chromophores/input_orca/pair/00013-00023.en.tmp) ****
----------------
ORBITAL ENERGIES
----------------

  NO   OCC          E(Eh)            E(eV) 
   0   2.0000      -1.561003       -42.4771 
   1   2.0000      -1.560372       -42.4599 
   2   2.0000      -1.416975       -38.5579 
   3   2.0000      -1.404341       -38.2141 
   4   2.0000      -1.288713       -35.0677 
   5   2.0000      -1.279579       -34.8191 
   6   2.0000      -1.186573       -32.2883 
   7   2.0000      -1.177301       -32.0360 
   8   2.0000      -1.121815       -30.5261 
   9   2.0000      -1.109901       -30.2020 
  10   2.0000      -1.062402       -28.9094 
  11   2.0000      -1.037491       -28.2316 
  12   2.0000      -0.995752       -27.0958 
  13   2.0000      -0.956374       -26.0243 
  14   2.0000      -0.923870       -25.1398 
  15   2.0000      -0.878885       -23.9157 
  16   2.0000      -0.847570       -23.0635 
  17   2.0000      -0.838350       -22.8127 
  18   2.0000      -0.822974       -22.3943 
  19   2.0000      -0.817887       -22.2558 
  20   2.0000      -0.777439       -21.1552 
  21   2.0000      -0.774861       -21.0850 
  22   2.0000      -0.734113       -19.9762 
  23   2.0000      -0.722959       -19.6727 
  24   2.0000      -0.710247       -19.3268 
  25   2.0000      -0.708286       -19.2734 
  26   2.0000      -0.681868       -18.5546 
  27   2.0000      -0.675922       -18.3928 
  28   2.0000      -0.641805       -17.4644 
  29   2.0000      -0.630785       -17.1645 
  30   2.0000      -0.615002       -16.7351 
  31   2.0000      -0.611577       -16.6419 
  32   2.0000      -0.599475       -16.3126 
  33   2.0000      -0.590726       -16.0745 
  34   2.0000      -0.578501       -15.7418 
  35   2.0000      -0.575133       -15.6502 
  36   2.0000      -0.572257       -15.5719 
  37   2.0000      -0.564162       -15.3516 
  38   2.0000      -0.547109       -14.8876 
  39   2.0000      -0.544643       -14.8205 
  40   2.0000      -0.539777       -14.6881 
  41   2.0000      -0.536406       -14.5963 
  42   2.0000      -0.520736       -14.1699 
  43   2.0000      -0.516887       -14.0652 
  44   2.0000      -0.509094       -13.8531 
  45   2.0000      -0.505195       -13.7471 
  46   2.0000      -0.499769       -13.5994 
  47   2.0000      -0.491969       -13.3872 
  48   2.0000      -0.491255       -13.3677 
  49   2.0000      -0.484474       -13.1832 
  50   2.0000      -0.475888       -12.9496 
  51   2.0000      -0.473687       -12.8897 
  52   2.0000      -0.470679       -12.8078 
  53   2.0000      -0.461843       -12.5674 
  54   2.0000      -0.457735       -12.4556 
  55   2.0000      -0.447863       -12.1870 
  56   2.0000      -0.436976       -11.8907 
  57   2.0000      -0.435551       -11.8519 
  58   2.0000      -0.355393        -9.6707 
  59   2.0000      -0.349369        -9.5068 
  60   2.0000      -0.305241        -8.3060 
  61   2.0000      -0.305169        -8.3041 
  62   0.0000       0.003256         0.0886 
  63   0.0000       0.007950         0.2163 
  64   0.0000       0.061993         1.6869 
  65   0.0000       0.070757         1.9254 
  66   0.0000       0.071738         1.9521 
  67   0.0000       0.075678         2.0593 
  68   0.0000       0.087526         2.3817 
  69   0.0000       0.092269         2.5108 
  70   0.0000       0.102425         2.7871 
  71   0.0000       0.104808         2.8520 
  72   0.0000       0.105369         2.8672 
  73   0.0000       0.107905         2.9362 
  74   0.0000       0.123125         3.3504 
  75   0.0000       0.124226         3.3804 
  76   0.0000       0.141212         3.8426 
  77   0.0000       0.144633         3.9357 
  78   0.0000       0.158853         4.3226 
  79   0.0000       0.161799         4.4028 
  80   0.0000       0.164718         4.4822 
  81   0.0000       0.170355         4.6356 
  82   0.0000       0.170384         4.6364 
  83   0.0000       0.175703         4.7811 
  84   0.0000       0.200611         5.4589 
  85   0.0000       0.204178         5.5560 
  86   0.0000       0.230808         6.2806 
  87   0.0000       0.231501         6.2995 
  88   0.0000       0.234343         6.3768 
  89   0.0000       0.236158         6.4262 
  90   0.0000       0.236320         6.4306 
  91   0.0000       0.237304         6.4574 
  92   0.0000       0.237515         6.4631 
  93   0.0000       0.238383         6.4867 
  94   0.0000       0.238687         6.4950 
  95   0.0000       0.241099         6.5606 
  96   0.0000       0.242117         6.5883 
  97   0.0000       0.243453         6.6247 
  98   0.0000       0.244309         6.6480 
  99   0.0000       0.246067         6.6958 
 100   0.0000       0.247450         6.7334 
 101   0.0000       0.251110         6.8331 
 102   0.0000       0.255003         6.9390 
 103   0.0000       0.261109         7.1051 
 104   0.0000       0.265786         7.2324 
 105   0.0000       0.267083         7.2677 
 106   0.0000       0.282948         7.6994 
 107   0.0000       0.293312         7.9814 
 108   0.0000       0.301196         8.1960 
 109   0.0000       0.307867         8.3775 
 110   0.0000       0.310228         8.4417 
 111   0.0000       0.310388         8.4461 
 112   0.0000       0.337933         9.1956 
 113   0.0000       0.341251         9.2859 
 114   0.0000       0.352929         9.6037 
 115   0.0000       0.353045         9.6068 
 116   0.0000       0.416889        11.3441 
 117   0.0000       0.417782        11.3684 
 118   0.0000       0.425750        11.5852 
 119   0.0000       0.433193        11.7878 
-------
TIMINGS
-------

Total SCF time: 0 days 0 hours 0 min 0 sec 

Total time                  ....       0.126 sec
Sum of individual times     ....       0.108 sec  ( 85.9%)

Fock matrix formation       ....       0.055 sec  ( 43.9%)
Diagonalization             ....       0.025 sec  ( 20.0%)
Density matrix formation    ....       0.003 sec  (  2.4%)
Population analysis         ....       0.000 sec  (  0.0%)
Initial guess               ....       0.003 sec  (  2.3%)
Orbital Transformation      ....       0.000 sec  (  0.0%)
Orbital Orthonormalization  ....       0.000 sec  (  0.0%)
DIIS solution               ....       0.005 sec  (  4.0%)
SOSCF solution              ....       0.017 sec  ( 13.4%)

-------------------------   --------------------
FINAL SINGLE POINT ENERGY       -19.761207000670
-------------------------   --------------------


                            ***************************************
                            *     ORCA property calculations      *
                            ***************************************

                                    ---------------------
                                    Active property flags
                                    ---------------------
   (+) Dipole Moment


------------------------------------------------------------------------------
                       ORCA ELECTRIC PROPERTIES CALCULATION
------------------------------------------------------------------------------

Dipole Moment Calculation                       ... on
Quadrupole Moment Calculation                   ... off
Polarizability Calculation                      ... off
GBWName                                         ... /home/mattyjones/Software/morphct/tests/output_EZ/donor_polymer/chromophores/input_orca/pair/00013-00023.gbw
Electron density file                           ... /home/mattyjones/Software/morphct/tests/output_EZ/donor_polymer/chromophores/input_orca/pair/00013-00023.scfp.tmp
The origin for moment calculation is the CENTER OF MASS  = (-0.068570, -0.359574 -0.126022)

-------------
DIPOLE MOMENT
-------------
                                X             Y             Z
Electronic contribution:    -11.16927     -28.94789     -14.22514
Nuclear contribution   :      6.64278      16.67125       7.04266
                        -----------------------------------------
Total Dipole Moment    :     -4.52649     -12.27664      -7.18249
                        -----------------------------------------
Magnitude (a.u.)       :     14.92625
Magnitude (Debye)      :     37.93952


Timings for individual modules:

Sum of individual times         ...        0.162 sec (=   0.003 min)
STO integral calculation        ...        0.026 sec (=   0.000 min)  15.9 %
SCF iterations                  ...        0.137 sec (=   0.002 min)  84.1 %
                             ****ORCA TERMINATED NORMALLY****
TOTAL RUN TIME: 0 days 0 hours 0 minutes 0 seconds 437 msec

