
                                 *****************
                                 * O   R   C   A *
                                 *****************

           --- An Ab Initio, DFT and Semiempirical electronic structure package ---

                  #######################################################
                  #                        -***-                        #
                  #  Department of molecular theory and spectroscopy    #
                  #              Directorship: Frank Neese              #
                  # Max Planck Institute for Chemical Energy Conversion #
                  #                  D-45470 Muelheim/Ruhr              #
                  #                       Germany                       #
                  #                                                     #
                  #                  All rights reserved                #
                  #                        -***-                        #
                  #######################################################


                         Program Version 4.0.1.2 - RELEASE -


 With contributions from (in alphabetic order):
   Daniel Aravena         : Magnetic Properties
   Michael Atanasov       : Ab Initio Ligand Field Theory
   Ute Becker             : Parallelization
   Martin Brehm           : Molecular dynamics
   Dmytro Bykov           : SCF Hessian
   Vijay G. Chilkuri      : MRCI spin determinant printing
   Dipayan Datta          : RHF DLPNO-CCSD density
   Achintya Kumar Dutta   : EOM-CC, STEOM-CC
   Dmitry Ganyushin       : Spin-Orbit,Spin-Spin,Magnetic field MRCI
   Yang Guo               : DLPNO-NEVPT2, CIM, IAO-localization
   Andreas Hansen         : Spin unrestricted coupled pair/coupled cluster methods
   Lee Huntington         : MR-EOM, pCC
   Robert Izsak           : Overlap fitted RIJCOSX, COSX-SCS-MP3, EOM
   Christian Kollmar      : KDIIS, OOCD, Brueckner-CCSD(T), CCSD density
   Simone Kossmann        : Meta GGA functionals, TD-DFT gradient, OOMP2, MP2 Hessian
   Martin Krupicka        : AUTO-CI
   Dagmar Lenk            : GEPOL surface
   Dimitrios Liakos       : Extrapolation schemes; parallel MDCI
   Dimitrios Manganas     : ROCIS; embedding schemes
   Dimitrios Pantazis     : SARC Basis sets
   Taras Petrenko         : DFT Hessian,TD-DFT gradient, ASA, ECA, R-Raman, ABS, FL, XAS/XES, NRVS
   Peter Pinski           : DLPNO-MP2
   Christoph Reimann      : Effective Core Potentials
   Marius Retegan         : Local ZFS, SOC
   Christoph Riplinger    : Optimizer, TS searches, QM/MM, DLPNO-CCSD(T), (RO)-DLPNO pert. Triples
   Tobias Risthaus        : Range-separated hybrids, TD-DFT gradient, RPA, STAB
   Michael Roemelt        : Restricted open shell CIS
   Masaaki Saitow         : Open-shell DLPNO
   Barbara Sandhoefer     : DKH picture change effects
   Kantharuban Sivalingam : CASSCF convergence, NEVPT2, FIC-MRCI
   Georgi Stoychev        : AutoAux
   Boris Wezisla          : Elementary symmetry handling
   Frank Wennmohs         : Technical directorship


 We gratefully acknowledge several colleagues who have allowed us to
 interface, adapt or use parts of their codes:
   Stefan Grimme, W. Hujo, H. Kruse,             : VdW corrections, initial TS optimization,
                  C. Bannwarth                     DFT functionals, gCP, sTDA/sTD-DF
   Ed Valeev                                     : LibInt (2-el integral package), F12 methods
   Garnet Chan, S. Sharma, J. Yang, R. Olivares  : DMRG
   Ulf Ekstrom                                   : XCFun DFT Library
   Mihaly Kallay                                 : mrcc  (arbitrary order and MRCC methods)
   Andreas Klamt, Michael Diedenhofen            : otool_cosmo (COSMO solvation model)
   Jiri Pittner, Ondrej Demel                    : Mk-CCSD
   Frank Weinhold                                : gennbo (NPA and NBO analysis)
   Christopher J. Cramer and Donald G. Truhlar   : smd solvation model


 Your calculation uses the libint2 library for the computation of 2-el integrals
 For citations please refer to: http://libint.valeyev.net

 This ORCA versions uses:
   CBLAS   interface :  Fast vector & matrix operations
   LAPACKE interface :  Fast linear algebra routines
   SCALAPACK package :  Parallel linear algebra routines


leaving
Your calculation utilizes the basis: def2-SVP
   F. Weigend and R. Ahlrichs, Phys. Chem. Chem. Phys. 7, 3297 (2005).

================================================================================
                                        WARNINGS
                       Please study these warnings very carefully!
================================================================================

Warning: TCutStore was < 0. Adjusted to Thresh (uncritical)

WARNING: Direct SCF is incompatible with Method<>HF and Method<>DFT
  ===> : conventional SCF is chosen

WARNING: The NDO methods need Guess=HUECKEL or Guess=HCORE or Guess=MOREAD
  ===> : Guess is set to Hueckel

WARNING: The NDO methods need %rel::SOCType==1
  ===> : %rel::SOCType is set to 1

WARNING: The NDO methods cannot have frozencore=1
  ===> : %method FrozenCore=0 end

INFO   : the flag for use of LIBINT has been found!

================================================================================
                                       INPUT FILE
================================================================================
NAME = /home/mattyjones/Software/morphct/tests/output_EZ/donor_polymer/chromophores/input_orca/pair/00014-00023.inp
|  1> # ================================================================
|  2> # Orca input file made by Matty Jones
|  3> # ================================================================
|  4> ! ZINDO/S 
|  5> ! NOPOP
|  6> ! NOMOPRINT
|  7> * xyz 0   1
|  8>  C  -10.84302  -7.09372  6.49429
|  9>  C  -11.62384  -8.02275  7.18358
| 10>  C  -10.87002  -8.95892  7.95792
| 11>  C  -9.48697  -8.76814  7.87967
| 12>  S  -9.27262  -7.46949  6.87074
| 13>  H  -12.76562  -8.02495  7.16994
| 14>  C  -11.49105  -10.17843  8.84425
| 15>  C  -12.74813  -10.11886  10.01763
| 16>  C  -13.08511  -11.61802  10.80498
| 17>  H  -13.16039  -11.34746  11.93001
| 18>  H  -12.12491  -12.25006  10.64840
| 19>  H  -13.70998  -9.78779  9.48556
| 20>  H  -12.45350  -9.35821  10.82332
| 21>  H  -10.60647  -10.66862  9.43548
| 22>  H  -11.88906  -10.98328  8.09036
| 23>  C  -14.35355  -12.59220  10.45885
| 24>  C  -14.40803  -14.08507  11.28232
| 25>  C  -13.79901  -15.39175  10.40793
| 26>  H  -12.67600  -15.22297  10.19243
| 27>  H  -14.37989  -15.47808  9.40965
| 28>  H  -13.93914  -16.36385  11.01991
| 29>  H  -13.78514  -13.98386  12.24657
| 30>  H  -15.50387  -14.31027  11.55367
| 31>  H  -14.36507  -12.82392  9.32828
| 32>  H  -15.33068  -12.03779  10.73701
| 33>  C  16.61196  10.99818  -11.95000
| 34>  C  15.71915  10.01239  -11.52691
| 35>  C  14.66057  10.49997  -10.69870
| 36>  C  14.71778  11.87772  -10.46664
| 37>  S  16.05628  12.41259  -11.28685
| 38>  H  15.93010  8.91537  -11.17307
| 39>  C  13.57948  9.41564  -10.18368
| 40>  C  11.94915  9.62767  -9.75487
| 41>  C  11.18599  11.09782  -9.43806
| 42>  H  11.75779  11.96356  -9.93306
| 43>  H  10.10580  11.06408  -9.83992
| 44>  H  11.34763  9.17747  -10.64096
| 45>  H  11.78035  8.94412  -8.83631
| 46>  H  14.03843  8.90758  -9.23170
| 47>  H  13.51694  8.57761  -11.00423
| 48>  C  11.19748  11.21591  -7.81294
| 49>  C  10.48590  12.55875  -7.12432
| 50>  C  9.72434  13.63486  -8.16337
| 51>  H  9.18259  13.04297  -8.99854
| 52>  H  10.51772  14.33229  -8.63724
| 53>  H  8.94328  14.27323  -7.60148
| 54>  H  9.77757  12.17377  -6.31248
| 55>  H  11.35981  13.07518  -6.61517
| 56>  H  10.63535  10.29574  -7.37644
| 57>  H  12.29378  11.16316  -7.43969
| 58>  H  -11.18241  -6.31261  5.86320
| 59>  H  -8.73335  -9.33491  8.36386
| 60>  H  17.46535  10.86972  -12.56549
| 61>  H  14.04624  12.45863  -9.88770
| 62> *
| 63> 
| 64>                          ****END OF INPUT****
================================================================================

                       ****************************
                       * Single Point Calculation *
                       ****************************

---------------------------------
CARTESIAN COORDINATES (ANGSTROEM)
---------------------------------
  C    -10.843020   -7.093720    6.494290
  C    -11.623840   -8.022750    7.183580
  C    -10.870020   -8.958920    7.957920
  C     -9.486970   -8.768140    7.879670
  S     -9.272620   -7.469490    6.870740
  H    -12.765620   -8.024950    7.169940
  C    -11.491050  -10.178430    8.844250
  C    -12.748130  -10.118860   10.017630
  C    -13.085110  -11.618020   10.804980
  H    -13.160390  -11.347460   11.930010
  H    -12.124910  -12.250060   10.648400
  H    -13.709980   -9.787790    9.485560
  H    -12.453500   -9.358210   10.823320
  H    -10.606470  -10.668620    9.435480
  H    -11.889060  -10.983280    8.090360
  C    -14.353550  -12.592200   10.458850
  C    -14.408030  -14.085070   11.282320
  C    -13.799010  -15.391750   10.407930
  H    -12.676000  -15.222970   10.192430
  H    -14.379890  -15.478080    9.409650
  H    -13.939140  -16.363850   11.019910
  H    -13.785140  -13.983860   12.246570
  H    -15.503870  -14.310270   11.553670
  H    -14.365070  -12.823920    9.328280
  H    -15.330680  -12.037790   10.737010
  C     16.611960   10.998180  -11.950000
  C     15.719150   10.012390  -11.526910
  C     14.660570   10.499970  -10.698700
  C     14.717780   11.877720  -10.466640
  S     16.056280   12.412590  -11.286850
  H     15.930100    8.915370  -11.173070
  C     13.579480    9.415640  -10.183680
  C     11.949150    9.627670   -9.754870
  C     11.185990   11.097820   -9.438060
  H     11.757790   11.963560   -9.933060
  H     10.105800   11.064080   -9.839920
  H     11.347630    9.177470  -10.640960
  H     11.780350    8.944120   -8.836310
  H     14.038430    8.907580   -9.231700
  H     13.516940    8.577610  -11.004230
  C     11.197480   11.215910   -7.812940
  C     10.485900   12.558750   -7.124320
  C      9.724340   13.634860   -8.163370
  H      9.182590   13.042970   -8.998540
  H     10.517720   14.332290   -8.637240
  H      8.943280   14.273230   -7.601480
  H      9.777570   12.173770   -6.312480
  H     11.359810   13.075180   -6.615170
  H     10.635350   10.295740   -7.376440
  H     12.293780   11.163160   -7.439690
  H    -11.182410   -6.312610    5.863200
  H     -8.733350   -9.334910    8.363860
  H     17.465350   10.869720  -12.565490
  H     14.046240   12.458630   -9.887700

----------------------------
CARTESIAN COORDINATES (A.U.)
----------------------------
  NO LB      ZA    FRAG     MASS         X           Y           Z
   0 C     4.0000    0    12.011  -20.490338  -13.405188   12.272430
   1 C     4.0000    0    12.011  -21.965874  -15.160800   13.574999
   2 C     4.0000    0    12.011  -20.541361  -16.929905   15.038289
   3 C     4.0000    0    12.011  -17.927775  -16.569383   14.890418
   4 S     6.0000    0    32.060  -17.522712  -14.115290   12.983817
   5 H     1.0000    0     1.008  -24.123526  -15.164958   13.549223
   6 C     4.0000    0    12.011  -21.714937  -19.234445   16.713210
   7 C     4.0000    0    12.011  -24.090474  -19.121874   18.930577
   8 C     4.0000    0    12.011  -24.727274  -21.954876   20.418453
   9 H     1.0000    0     1.008  -24.869533  -21.443592   22.544452
  10 H     1.0000    0     1.008  -22.912759  -23.149259   20.122560
  11 H     1.0000    0     1.008  -25.908108  -18.496243   17.925111
  12 H     1.0000    0     1.008  -23.533704  -17.684454   20.453111
  13 H     1.0000    0     1.008  -20.043324  -20.160770   17.830473
  14 H     1.0000    0     1.008  -22.467067  -20.755391   15.288565
  15 C     4.0000    0    12.011  -27.124279  -23.795809   19.764362
  16 C     4.0000    0    12.011  -27.227231  -26.616925   21.320495
  17 C     4.0000    0    12.011  -26.076350  -29.086192   19.668137
  18 H     1.0000    0     1.008  -23.954168  -28.767244   19.260901
  19 H     1.0000    0     1.008  -27.174054  -29.249332   17.781662
  20 H     1.0000    0     1.008  -26.341157  -30.923195   20.824612
  21 H     1.0000    0     1.008  -26.050139  -26.425666   23.142663
  22 H     1.0000    0     1.008  -29.298068  -27.042491   21.833272
  23 H     1.0000    0     1.008  -27.146048  -24.233697   17.627895
  24 H     1.0000    0     1.008  -28.970787  -22.748126   20.290008
  25 C     4.0000    0    12.011   31.392055   20.783548  -22.582227
  26 C     4.0000    0    12.011   29.704889   18.920675  -21.782703
  27 C     4.0000    0    12.011   27.704462   19.842068  -20.217613
  28 C     4.0000    0    12.011   27.812573   22.445638  -19.779083
  29 S     6.0000    0    32.060   30.341972   23.456396  -21.329055
  30 H     1.0000    0     1.008   30.103526   16.847608  -21.114042
  31 C     4.0000    0    12.011   25.661498   17.792981  -19.244366
  32 C     4.0000    0    12.011   22.580621   18.193660  -18.434033
  33 C     4.0000    0    12.011   21.138458   20.971840  -17.835349
  34 H     1.0000    0     1.008   22.219003   22.607852  -18.770763
  35 H     1.0000    0     1.008   19.097194   20.908081  -18.594754
  36 H     1.0000    0     1.008   21.443913   17.342905  -20.108500
  37 H     1.0000    0     1.008   22.261635   16.901937  -16.698206
  38 H     1.0000    0     1.008   26.528788   16.832887  -17.445385
  39 H     1.0000    0     1.008   25.543315   16.209334  -20.794981
  40 C     4.0000    0    12.011   21.160171   21.194998  -14.764317
  41 C     4.0000    0    12.011   19.815479   23.732598  -13.463014
  42 C     4.0000    0    12.011   18.376339   25.766151  -15.426534
  43 H     1.0000    0     1.008   17.352580   24.647641  -17.004776
  44 H     1.0000    0     1.008   19.875610   27.084103  -16.322018
  45 H     1.0000    0     1.008   16.900350   26.972496  -14.364715
  46 H     1.0000    0     1.008   18.476930   23.005091  -11.928858
  47 H     1.0000    0     1.008   21.466930   24.708509  -12.500860
  48 H     1.0000    0     1.008   20.097899   19.456129  -13.939451
  49 H     1.0000    0     1.008   23.231877   21.095315  -14.058977
  50 H     1.0000    0     1.008  -21.131692  -11.929104   11.079842
  51 H     1.0000    0     1.008  -16.503640  -17.640423   15.805405
  52 H     1.0000    0     1.008   33.004728   20.540794  -23.745335
  53 H     1.0000    0     1.008   26.543547   23.543399  -18.685045

--------------------------------
INTERNAL COORDINATES (ANGSTROEM)
--------------------------------
 C      0   0   0     0.000000000000     0.00000000     0.00000000
 C      1   0   0     1.395670920167     0.00000000     0.00000000
 C      2   1   0     1.429776659797   114.10171754     0.00000000
 C      3   2   1     1.398337360368   113.69242238     0.00000000
 S      1   2   3     1.658033128559   105.47962453     0.00000000
 H      2   1   3     1.141863589927   123.69697582   177.92683959
 C      3   2   1     1.630479613457   125.68428448   181.33918983
 C      7   3   2     1.720645034776   128.54149913   309.25279643
 C      8   7   3     1.726544597889   115.05672047   182.64294544
 H      9   8   7     1.159552626188   104.62661136   134.11941022
 H      9   8   7     1.160162013686   104.47484642    20.53053328
 H      8   7   3     1.147981381513   107.82113314    62.89985351
 H      8   7   3     1.146530259304   108.32703095   303.33464896
 H      7   3   2     1.171461021716   107.44039636   186.03993058
 H      7   3   2     1.172410173403   107.05041667    71.31485050
 C      9   8   7     1.636390137742   124.87233792   257.62243343
 C     16   9   8     1.705793583116   116.33748772   175.15268195
 C     17  16   9     1.686082991700   114.60483928   262.50040414
 H     18  17  16     1.155888575296   109.53932988    63.06923445
 H     18  17  16     1.158204386842   108.88043139   303.08159063
 H     18  17  16     1.157209724855   109.45217837   183.51505315
 H     17  16   9     1.152394671413   108.04760630    22.76921188
 H     17  16   9     1.151178165229   108.38502521   141.39012267
 H     16   9   8     1.154129712684   109.54003541    53.33728997
 H     16   9   8     1.157379138658   108.56717359   294.58851853
 C      5   1   2    36.949784453402   115.75897231   172.32627712
 C     26   5   1     1.395670723452    17.14478211   261.70763724
 C     27  26   5     1.429775393864   114.10141638    19.87293305
 C     28  27  26     1.398327533234   113.69325546     0.00000000
 S     26   5   1     1.658042168643    89.30449501    62.58286323
 H     27  26   5     1.171817190734   129.61413389   239.96005017
 C     28  27  26     1.615479104600   116.82342750   179.39172296
 C     32  28  27     1.699061695731   129.70487398   207.15046794
 C     33  32  28     1.686452722195   126.18651905   344.92874085
 H     34  33  32     1.149559040502   110.51996870    22.38282509
 H     34  33  32     1.153013565965   109.44853419   143.37000141
 H     33  32  28     1.161749473208   104.83109525   105.59391306
 H     33  32  28     1.157361877763   105.45915297   218.93759153
 H     32  28  27     1.172615020584   106.72116062    83.47692863
 H     32  28  27     1.174524514431   106.96719222   330.14269204
 C     34  33  32     1.629445391107   104.32036829   262.06535827
 C     41  34  33     1.668461227119   117.83670450   181.12081783
 C     42  41  34     1.678574177152   116.99957982     3.88682586
 H     43  42  41     1.158160508522   109.32749831    38.31470375
 H     43  42  41     1.157762154417   109.18637378   278.58074160
 H     43  42  41     1.154682360045   111.10619714   158.01838512
 H     42  41  34     1.144126380650   106.62370876   130.06182833
 H     42  41  34     1.135628616890   102.87621279   243.73489078
 H     41  34  33     1.163286385977   108.27029127   301.29536888
 H     41  34  33     1.159297983695   108.93395914    57.87448230
 H      1   2   3     1.059996694476   127.25974373   180.00022931
 H      4   3   2     1.060005327062   127.20552508   179.99967778
 H     26   5   1     1.060002077262   143.05162667   234.95636585
 H     29  28  27     1.059997133628   127.20620936   179.99975201

---------------------------
INTERNAL COORDINATES (A.U.)
---------------------------
 C      0   0   0     0.000000000000     0.00000000     0.00000000
 C      1   0   0     2.637435812194     0.00000000     0.00000000
 C      2   1   0     2.701886319689   114.10171754     0.00000000
 C      3   2   1     2.642474653925   113.69242238     0.00000000
 S      1   2   3     3.133228533946   105.47962453     0.00000000
 H      2   1   3     2.157809467257   123.69697582   177.92683959
 C      3   2   1     3.081159936376   125.68428448   181.33918983
 C      7   3   2     3.251547889418   128.54149913   309.25279643
 C      8   7   3     3.262696448012   115.05672047   182.64294544
 H      9   8   7     2.191236901365   104.62661136   134.11941022
 H      9   8   7     2.192388476845   104.47484642    20.53053328
 H      8   7   3     2.169370417900   107.82113314    62.89985351
 H      8   7   3     2.166628194339   108.32703095   303.33464896
 H      7   3   2     2.213740507607   107.44039636   186.03993058
 H      7   3   2     2.215534144356   107.05041667    71.31485050
 C      9   8   7     3.092329208582   124.87233792   257.62243343
 C     16   9   8     3.223482713090   116.33748772   175.15268195
 C     17  16   9     3.186235093376   114.60483928   262.50040414
 H     18  17  16     2.184312848638   109.53932988    63.06923445
 H     18  17  16     2.188689098238   108.88043139   303.08159063
 H     18  17  16     2.186809459487   109.45217837   183.51505315
 H     17  16   9     2.177710327160   108.04760630    22.76921188
 H     17  16   9     2.175411463633   108.38502521   141.39012267
 H     16   9   8     2.180989079994   109.54003541    53.33728997
 H     16   9   8     2.187129605177   108.56717359   294.58851853
 C      5   1   2    69.824973324352   115.75897231   172.32627712
 C     26   5   1     2.637435440455    17.14478211   261.70763724
 C     27  26   5     2.701883927423   114.10141638    19.87293305
 C     28  27  26     2.642456083334   113.69325546     0.00000000
 S     26   5   1     3.133245617229    89.30449501    62.58286323
 H     27  26   5     2.214413569508   129.61413389   239.96005017
 C     28  27  26     3.052813082767   116.82342750   179.39172296
 C     32  28  27     3.210761289567   129.70487398   207.15046794
 C     33  32  28     3.186933782755   126.18651905   344.92874085
 H     34  33  32     2.172351761322   110.51996870    22.38282509
 H     34  33  32     2.178879868370   109.44853419   143.37000141
 H     33  32  28     2.195388340591   104.83109525   105.59391306
 H     33  32  28     2.187096986814   105.45915297   218.93759153
 H     32  28  27     2.215921249427   106.72116062    83.47692863
 H     32  28  27     2.219529669852   106.96719222   330.14269204
 C     34  33  32     3.079205539373   104.32036829   262.06535827
 C     41  34  33     3.152934784321   117.83670450   181.12081783
 C     42  41  34     3.172045490289   116.99957982     3.88682586
 H     43  42  41     2.188606180230   109.32749831    38.31470375
 H     43  42  41     2.187853400067   109.18637378   278.58074160
 H     43  42  41     2.182033432156   111.10619714   158.01838512
 H     42  41  34     2.162085522024   106.62370876   130.06182833
 H     42  41  34     2.146027075766   102.87621279   243.73489078
 H     41  34  33     2.198292684816   108.27029127   301.29536888
 H     41  34  33     2.190755696791   108.93395914    57.87448230
 H      1   2   3     2.003103455421   127.25974373   180.00022931
 H      4   3   2     2.003119768645   127.20552508   179.99967778
 H     26   5   1     2.003113627413   143.05162667   234.95636585
 H     29  28  27     2.003104285299   127.20620936   179.99975201

----------------------------
SLATER BASIS SET DIM= 120
----------------------------
  0 C     2 shells
 l=0 nsto= 1
    2       1.625000000000        1.000000000000
 l=1 nsto= 1
    2       1.625000000000        1.000000000000
  1 C     2 shells
 l=0 nsto= 1
    2       1.625000000000        1.000000000000
 l=1 nsto= 1
    2       1.625000000000        1.000000000000
  2 C     2 shells
 l=0 nsto= 1
    2       1.625000000000        1.000000000000
 l=1 nsto= 1
    2       1.625000000000        1.000000000000
  3 C     2 shells
 l=0 nsto= 1
    2       1.625000000000        1.000000000000
 l=1 nsto= 1
    2       1.625000000000        1.000000000000
  4 S     2 shells
 l=0 nsto= 1
    3       1.925000000000        1.000000000000
 l=1 nsto= 1
    3       1.925000000000        1.000000000000
  5 H     1 shells
 l=0 nsto= 1
    1       1.200000000000        1.000000000000
  6 C     2 shells
 l=0 nsto= 1
    2       1.625000000000        1.000000000000
 l=1 nsto= 1
    2       1.625000000000        1.000000000000
  7 C     2 shells
 l=0 nsto= 1
    2       1.625000000000        1.000000000000
 l=1 nsto= 1
    2       1.625000000000        1.000000000000
  8 C     2 shells
 l=0 nsto= 1
    2       1.625000000000        1.000000000000
 l=1 nsto= 1
    2       1.625000000000        1.000000000000
  9 H     1 shells
 l=0 nsto= 1
    1       1.200000000000        1.000000000000
 10 H     1 shells
 l=0 nsto= 1
    1       1.200000000000        1.000000000000
 11 H     1 shells
 l=0 nsto= 1
    1       1.200000000000        1.000000000000
 12 H     1 shells
 l=0 nsto= 1
    1       1.200000000000        1.000000000000
 13 H     1 shells
 l=0 nsto= 1
    1       1.200000000000        1.000000000000
 14 H     1 shells
 l=0 nsto= 1
    1       1.200000000000        1.000000000000
 15 C     2 shells
 l=0 nsto= 1
    2       1.625000000000        1.000000000000
 l=1 nsto= 1
    2       1.625000000000        1.000000000000
 16 C     2 shells
 l=0 nsto= 1
    2       1.625000000000        1.000000000000
 l=1 nsto= 1
    2       1.625000000000        1.000000000000
 17 C     2 shells
 l=0 nsto= 1
    2       1.625000000000        1.000000000000
 l=1 nsto= 1
    2       1.625000000000        1.000000000000
 18 H     1 shells
 l=0 nsto= 1
    1       1.200000000000        1.000000000000
 19 H     1 shells
 l=0 nsto= 1
    1       1.200000000000        1.000000000000
 20 H     1 shells
 l=0 nsto= 1
    1       1.200000000000        1.000000000000
 21 H     1 shells
 l=0 nsto= 1
    1       1.200000000000        1.000000000000
 22 H     1 shells
 l=0 nsto= 1
    1       1.200000000000        1.000000000000
 23 H     1 shells
 l=0 nsto= 1
    1       1.200000000000        1.000000000000
 24 H     1 shells
 l=0 nsto= 1
    1       1.200000000000        1.000000000000
 25 C     2 shells
 l=0 nsto= 1
    2       1.625000000000        1.000000000000
 l=1 nsto= 1
    2       1.625000000000        1.000000000000
 26 C     2 shells
 l=0 nsto= 1
    2       1.625000000000        1.000000000000
 l=1 nsto= 1
    2       1.625000000000        1.000000000000
 27 C     2 shells
 l=0 nsto= 1
    2       1.625000000000        1.000000000000
 l=1 nsto= 1
    2       1.625000000000        1.000000000000
 28 C     2 shells
 l=0 nsto= 1
    2       1.625000000000        1.000000000000
 l=1 nsto= 1
    2       1.625000000000        1.000000000000
 29 S     2 shells
 l=0 nsto= 1
    3       1.925000000000        1.000000000000
 l=1 nsto= 1
    3       1.925000000000        1.000000000000
 30 H     1 shells
 l=0 nsto= 1
    1       1.200000000000        1.000000000000
 31 C     2 shells
 l=0 nsto= 1
    2       1.625000000000        1.000000000000
 l=1 nsto= 1
    2       1.625000000000        1.000000000000
 32 C     2 shells
 l=0 nsto= 1
    2       1.625000000000        1.000000000000
 l=1 nsto= 1
    2       1.625000000000        1.000000000000
 33 C     2 shells
 l=0 nsto= 1
    2       1.625000000000        1.000000000000
 l=1 nsto= 1
    2       1.625000000000        1.000000000000
 34 H     1 shells
 l=0 nsto= 1
    1       1.200000000000        1.000000000000
 35 H     1 shells
 l=0 nsto= 1
    1       1.200000000000        1.000000000000
 36 H     1 shells
 l=0 nsto= 1
    1       1.200000000000        1.000000000000
 37 H     1 shells
 l=0 nsto= 1
    1       1.200000000000        1.000000000000
 38 H     1 shells
 l=0 nsto= 1
    1       1.200000000000        1.000000000000
 39 H     1 shells
 l=0 nsto= 1
    1       1.200000000000        1.000000000000
 40 C     2 shells
 l=0 nsto= 1
    2       1.625000000000        1.000000000000
 l=1 nsto= 1
    2       1.625000000000        1.000000000000
 41 C     2 shells
 l=0 nsto= 1
    2       1.625000000000        1.000000000000
 l=1 nsto= 1
    2       1.625000000000        1.000000000000
 42 C     2 shells
 l=0 nsto= 1
    2       1.625000000000        1.000000000000
 l=1 nsto= 1
    2       1.625000000000        1.000000000000
 43 H     1 shells
 l=0 nsto= 1
    1       1.200000000000        1.000000000000
 44 H     1 shells
 l=0 nsto= 1
    1       1.200000000000        1.000000000000
 45 H     1 shells
 l=0 nsto= 1
    1       1.200000000000        1.000000000000
 46 H     1 shells
 l=0 nsto= 1
    1       1.200000000000        1.000000000000
 47 H     1 shells
 l=0 nsto= 1
    1       1.200000000000        1.000000000000
 48 H     1 shells
 l=0 nsto= 1
    1       1.200000000000        1.000000000000
 49 H     1 shells
 l=0 nsto= 1
    1       1.200000000000        1.000000000000
 50 H     1 shells
 l=0 nsto= 1
    1       1.200000000000        1.000000000000
 51 H     1 shells
 l=0 nsto= 1
    1       1.200000000000        1.000000000000
 52 H     1 shells
 l=0 nsto= 1
    1       1.200000000000        1.000000000000
 53 H     1 shells
 l=0 nsto= 1
    1       1.200000000000        1.000000000000
------------------------------------------------------------------------------
                           ORCA NDO INTEGRAL CALCULATION
------------------------------------------------------------------------------

--------------
NDO PARAMETERS
--------------

Gamma integral treatment              ... Mataga-Nishimoto
Nuclear repulsuion treatment          ... Direct (ZA*ZB/RAB)
Interaction factors:
s-s (sigma) =    1.0000
s-p (sigma) =    1.0000
s-d (sigma) =    1.0000
p-p (sigma) =    1.2670  p-p(pi) =    0.5850
p-d (sigma) =    1.0000  p-d(pi) =    1.0000
d-d (sigma) =    1.0000  d-d(pi) =    1.0000 d-d (delta) =    1.0000

fGamma parameter for Mataga-Nishimoto gamma integrals:    1.2000

--------------------------
Parameters for Element H :
--------------------------
 One-electron parameters (in eV)
  U(s)  =   -13.060000 Beta(s) =    12.000000 Neff(s) =     1.000000
 One-center electron repulsion parameters (in eV)
  G(s,s)=    12.850000
--------------------------
Parameters for Element C :
--------------------------
 One-electron parameters (in eV)
  U(s)  =   -50.870766 Beta(s) =    17.000000 Neff(s) =     2.000000
  U(p)  =   -41.599980 Beta(p) =    17.000000 Neff(p) =     2.000000 
 One-center electron repulsion parameters (in eV)
  G(s,s)=    11.110000
  G(s,p)=    11.110000 G(p,p)  =    11.110000
 Slater-Condon parameters (in eV)
 F2(p,p)=     4.5098 G1(s,p)=    6.8977
--------------------------
Parameters for Element S :
--------------------------
 One-electron parameters (in eV)
  U(s)  =   -69.509597 Beta(s) =    15.000000 Neff(s) =     2.000000
  U(p)  =   -60.725746 Beta(p) =    15.000000 Neff(p) =     4.000000 
 One-center electron repulsion parameters (in eV)
  G(s,s)=    10.090000
  G(s,p)=    10.090000 G(p,p)  =    10.090000
 Slater-Condon parameters (in eV)
 F2(p,p)=     4.5377 G1(s,p)=    3.0756

 Number of atoms                    ....   54
 Number of basis functions          ....  120

 Overlap integrals                  .... done
 One electron matrix                .... done
 Nuclear repulsion                  .... done
 Integral list                      .... done
 Electron-electron repulsion        .... done
-------------------------------------------------------------------------------
                                 ORCA SCF
-------------------------------------------------------------------------------

------------
SCF SETTINGS
------------
Hamiltonian:
 ZDO-Hamiltonian        Method          .... INDO


General Settings:
 Integral files         IntName         .... /home/mattyjones/Software/morphct/tests/output_EZ/donor_polymer/chromophores/input_orca/pair/00014-00023
 Hartree-Fock type      HFTyp           .... RHF
 Total Charge           Charge          ....    0
 Multiplicity           Mult            ....    1
 Number of Electrons    NEL             ....  124
 Basis Dimension        Dim             ....  120
 Nuclear Repulsion      ENuc            ....    639.7984787255 Eh

Convergence Acceleration:
 DIIS                   CNVDIIS         .... on
   Start iteration      DIISMaxIt       ....    12
   Startup error        DIISStart       ....  0.200000
   # of expansion vecs  DIISMaxEq       ....     5
   Bias factor          DIISBfac        ....   1.050
   Max. coefficient     DIISMaxC        ....  10.000
 Newton-Raphson         CNVNR           .... off
 SOSCF                  CNVSOSCF        .... on
   Start iteration      SOSCFMaxIt      ....   150
   Startup grad/error   SOSCFStart      ....  0.003300
 Level Shifting         CNVShift        .... on
   Level shift para.    LevelShift      ....    0.2500
   Turn off err/grad.   ShiftErr        ....    0.0010
 Zerner damping         CNVZerner       .... off
 Static damping         CNVDamp         .... on
   Fraction old density DampFac         ....    0.7000
   Max. Damping (<1)    DampMax         ....    0.9800
   Min. Damping (>=0)   DampMin         ....    0.0000
   Turn off err/grad.   DampErr         ....    0.1000
 Fernandez-Rico         CNVRico         .... off

SCF Procedure:
 Maximum # iterations   MaxIter         ....   125
 SCF integral mode      SCFMode         .... Conventional
 Integral Buffer length BufferLength    .... 1048576
 Integral index format  IndFormat       ....     0
 Integral value format  ValFormat       ....     0
 Integral Storage       Thresh          ....  1.000e-08 Eh

Convergence Tolerance:
 Convergence Check Mode ConvCheckMode   .... Total+1el-Energy
 Convergence forced     ConvForced      .... 0
 Energy Change          TolE            ....  1.000e-06 Eh
 1-El. energy change                    ....  1.000e-03 Eh
 Orbital Gradient       TolG            ....  5.000e-05
 Orbital Rotation angle TolX            ....  5.000e-05
 DIIS Error             TolErr          ....  1.000e-06


Diagonalization of the overlap matrix:
Smallest eigenvalue                        ... 1.689e-01
Time for diagonalization                   ...    0.003 sec
Threshold for overlap eigenvalues          ... 1.000e-08
Number of eigenvalues below threshold      ... 0
Time for construction of square roots      ...    0.000 sec
Total time needed                          ...    0.003 sec

-------------------------------
INITIAL GUESS: EXTENDED HUECKEL
-------------------------------
EHT matrix was read from disk
EHT matrix was diagonalized
Initial density was built
                      ------------------
                      INITIAL GUESS DONE
                      ------------------

 InCore treatment chosen:
   Memory dedicated               ...    1024 MB
   Memory needed                  ...      0 MB
   Number of tiny    integrals    ...       0
   Number of small   integrals    ...       0
   Number of regular integrals    ...    7392

--------------
SCF ITERATIONS
--------------
ITER       Energy         Delta-E        Max-DP      RMS-DP      [F,P]     Damp
  0    -22.4132381609   0.000000000000 0.04382230  0.00146855  0.1088590 0.7000
  1    -22.4562031344  -0.042964973521 0.04148746  0.00138558  0.0744763 0.7000
                               ***Turning on DIIS***
  2    -22.4879536425  -0.031750508103 0.10542769  0.00355738  0.0470579 0.0000
  3    -22.5735455709  -0.085591928330 0.01806217  0.00073355  0.0206461 0.0000
  4    -22.5545431955   0.019002375353 0.01204669  0.00051136  0.0068945 0.0000
  5    -22.5724756232  -0.017932427704 0.00835595  0.00034708  0.0040540 0.0000
  6    -22.5740571758  -0.001581552614 0.00629005  0.00024761  0.0022464 0.0000
                      *** Initiating the SOSCF procedure ***
                           *** Shutting down DIIS ***
                      *** Re-Reading the Fockian *** 
                      *** Removing any level shift *** 
ITER      Energy       Delta-E        Grad      Rot      Max-DP    RMS-DP
  7    -22.57074333   0.0033138501  0.003157  0.003157  0.003847  0.000142
  8    -22.56927219   0.0014711378  0.000920  0.002610  0.001934  0.000067
  9    -22.56928889  -0.0000167052  0.000399  0.002573  0.002329  0.000074
 10    -22.56929527  -0.0000063739  0.000042  0.000093  0.000136  0.000005
                 **** Energy Check signals convergence ****
              ***Rediagonalizing the Fockian in SOSCF/NRSCF***

               *****************************************************
               *                     SUCCESS                       *
               *           SCF CONVERGED AFTER  11 CYCLES          *
               *****************************************************


----------------
TOTAL SCF ENERGY
----------------

Total Energy       :          -22.56929533 Eh            -614.14175 eV

Components:
Nuclear Repulsion  :          639.79847873 Eh           17409.80170 eV
Electronic Energy  :         -662.36777406 Eh          -18023.94345 eV
One Electron Energy:        -1234.38181520 Eh          -33589.23684 eV
Two Electron Energy:          572.01404114 Eh           15565.29338 eV


---------------
SCF CONVERGENCE
---------------

  Last Energy change         ...   -6.7678e-08  Tolerance :   1.0000e-06
  Last MAX-Density change    ...    7.1106e-05  Tolerance :   1.0000e-05
  Last RMS-Density change    ...    1.7999e-06  Tolerance :   1.0000e-06
  Last Orbital Gradient      ...    2.3221e-05  Tolerance :   5.0000e-05
  Last Orbital Rotation      ...    4.1758e-05  Tolerance :   5.0000e-05

             **** THE GBW FILE WAS UPDATED (/home/mattyjones/Software/morphct/tests/output_EZ/donor_polymer/chromophores/input_orca/pair/00014-00023.gbw) ****
             **** DENSITY FILE WAS UPDATED (/home/mattyjones/Software/morphct/tests/output_EZ/donor_polymer/chromophores/input_orca/pair/00014-00023.scfp.tmp) ****
             **** ENERGY FILE WAS UPDATED (/home/mattyjones/Software/morphct/tests/output_EZ/donor_polymer/chromophores/input_orca/pair/00014-00023.en.tmp) ****
----------------
ORBITAL ENERGIES
----------------

  NO   OCC          E(Eh)            E(eV) 
   0   2.0000      -1.560959       -42.4758 
   1   2.0000      -1.554372       -42.2966 
   2   2.0000      -1.416919       -38.5563 
   3   2.0000      -1.385975       -37.7143 
   4   2.0000      -1.288657       -35.0661 
   5   2.0000      -1.286897       -35.0182 
   6   2.0000      -1.177768       -32.0487 
   7   2.0000      -1.177248       -32.0346 
   8   2.0000      -1.110253       -30.2115 
   9   2.0000      -1.109852       -30.2006 
  10   2.0000      -1.062347       -28.9079 
  11   2.0000      -1.042418       -28.3656 
  12   2.0000      -0.995699       -27.0943 
  13   2.0000      -0.951452       -25.8903 
  14   2.0000      -0.905083       -24.6285 
  15   2.0000      -0.878833       -23.9143 
  16   2.0000      -0.863964       -23.5097 
  17   2.0000      -0.847514       -23.0620 
  18   2.0000      -0.832549       -22.6548 
  19   2.0000      -0.817836       -22.2545 
  20   2.0000      -0.777391       -21.1539 
  21   2.0000      -0.776654       -21.1338 
  22   2.0000      -0.724511       -19.7150 
  23   2.0000      -0.722905       -19.6712 
  24   2.0000      -0.708233       -19.2720 
  25   2.0000      -0.680356       -18.5134 
  26   2.0000      -0.675867       -18.3913 
  27   2.0000      -0.670528       -18.2460 
  28   2.0000      -0.659950       -17.9581 
  29   2.0000      -0.641750       -17.4629 
  30   2.0000      -0.611523       -16.6404 
  31   2.0000      -0.609138       -16.5755 
  32   2.0000      -0.599422       -16.3111 
  33   2.0000      -0.588284       -16.0080 
  34   2.0000      -0.577730       -15.7208 
  35   2.0000      -0.575084       -15.6488 
  36   2.0000      -0.572479       -15.5780 
  37   2.0000      -0.564107       -15.3501 
  38   2.0000      -0.549111       -14.9421 
  39   2.0000      -0.544589       -14.8190 
  40   2.0000      -0.539725       -14.6867 
  41   2.0000      -0.532415       -14.4877 
  42   2.0000      -0.520683       -14.1685 
  43   2.0000      -0.515587       -14.0298 
  44   2.0000      -0.509609       -13.8672 
  45   2.0000      -0.509040       -13.8517 
  46   2.0000      -0.499713       -13.5979 
  47   2.0000      -0.498319       -13.5599 
  48   2.0000      -0.484419       -13.1817 
  49   2.0000      -0.484227       -13.1765 
  50   2.0000      -0.481162       -13.0931 
  51   2.0000      -0.473638       -12.8883 
  52   2.0000      -0.469861       -12.7856 
  53   2.0000      -0.461787       -12.5659 
  54   2.0000      -0.458755       -12.4834 
  55   2.0000      -0.447808       -12.1855 
  56   2.0000      -0.440655       -11.9908 
  57   2.0000      -0.435503       -11.8506 
  58   2.0000      -0.357879        -9.7384 
  59   2.0000      -0.349322        -9.5055 
  60   2.0000      -0.305372        -8.3096 
  61   2.0000      -0.305192        -8.3047 
  62   0.0000       0.003303         0.0899 
  63   0.0000       0.007094         0.1930 
  64   0.0000       0.059926         1.6307 
  65   0.0000       0.062042         1.6883 
  66   0.0000       0.071792         1.9536 
  67   0.0000       0.074233         2.0200 
  68   0.0000       0.084565         2.3011 
  69   0.0000       0.092325         2.5123 
  70   0.0000       0.103815         2.8249 
  71   0.0000       0.104856         2.8533 
  72   0.0000       0.105422         2.8687 
  73   0.0000       0.107598         2.9279 
  74   0.0000       0.123059         3.3486 
  75   0.0000       0.124278         3.3818 
  76   0.0000       0.142991         3.8910 
  77   0.0000       0.144687         3.9371 
  78   0.0000       0.154812         4.2127 
  79   0.0000       0.158908         4.3241 
  80   0.0000       0.165597         4.5061 
  81   0.0000       0.170439         4.6379 
  82   0.0000       0.171892         4.6774 
  83   0.0000       0.175752         4.7824 
  84   0.0000       0.200663         5.4603 
  85   0.0000       0.203925         5.5491 
  86   0.0000       0.230864         6.2821 
  87   0.0000       0.233466         6.3529 
  88   0.0000       0.234401         6.3784 
  89   0.0000       0.235787         6.4161 
  90   0.0000       0.236210         6.4276 
  91   0.0000       0.237569         6.4646 
  92   0.0000       0.238439         6.4882 
  93   0.0000       0.238619         6.4931 
  94   0.0000       0.239427         6.5151 
  95   0.0000       0.241240         6.5645 
  96   0.0000       0.242172         6.5898 
  97   0.0000       0.242569         6.6006 
  98   0.0000       0.244101         6.6423 
  99   0.0000       0.246121         6.6973 
 100   0.0000       0.247506         6.7350 
 101   0.0000       0.247753         6.7417 
 102   0.0000       0.258016         7.0210 
 103   0.0000       0.261166         7.1067 
 104   0.0000       0.264891         7.2081 
 105   0.0000       0.265833         7.2337 
 106   0.0000       0.270058         7.3487 
 107   0.0000       0.293368         7.9829 
 108   0.0000       0.298319         8.1177 
 109   0.0000       0.301251         8.1975 
 110   0.0000       0.309627         8.4254 
 111   0.0000       0.310277         8.4431 
 112   0.0000       0.337985         9.1970 
 113   0.0000       0.342477         9.3193 
 114   0.0000       0.352982         9.6051 
 115   0.0000       0.355876         9.6839 
 116   0.0000       0.408429        11.1139 
 117   0.0000       0.416938        11.3455 
 118   0.0000       0.432081        11.7575 
 119   0.0000       0.433241        11.7891 
-------
TIMINGS
-------

Total SCF time: 0 days 0 hours 0 min 0 sec 

Total time                  ....       0.119 sec
Sum of individual times     ....       0.103 sec  ( 86.1%)

Fock matrix formation       ....       0.041 sec  ( 34.0%)
Diagonalization             ....       0.024 sec  ( 20.2%)
Density matrix formation    ....       0.003 sec  (  2.4%)
Population analysis         ....       0.000 sec  (  0.0%)
Initial guess               ....       0.003 sec  (  2.5%)
Orbital Transformation      ....       0.000 sec  (  0.0%)
Orbital Orthonormalization  ....       0.000 sec  (  0.0%)
DIIS solution               ....       0.004 sec  (  3.7%)
SOSCF solution              ....       0.028 sec  ( 23.2%)

-------------------------   --------------------
FINAL SINGLE POINT ENERGY       -22.569295334794
-------------------------   --------------------


                            ***************************************
                            *     ORCA property calculations      *
                            ***************************************

                                    ---------------------
                                    Active property flags
                                    ---------------------
   (+) Dipole Moment


------------------------------------------------------------------------------
                       ORCA ELECTRIC PROPERTIES CALCULATION
------------------------------------------------------------------------------

Dipole Moment Calculation                       ... on
Quadrupole Moment Calculation                   ... off
Polarizability Calculation                      ... off
GBWName                                         ... /home/mattyjones/Software/morphct/tests/output_EZ/donor_polymer/chromophores/input_orca/pair/00014-00023.gbw
Electron density file                           ... /home/mattyjones/Software/morphct/tests/output_EZ/donor_polymer/chromophores/input_orca/pair/00014-00023.scfp.tmp
The origin for moment calculation is the CENTER OF MASS  = ( 1.622631,  1.115698 -1.127422)

-------------
DIPOLE MOMENT
-------------
                                X             Y             Z
Electronic contribution:    179.12943     126.04923    -120.03683
Nuclear contribution   :    -96.72805     -68.33481      65.26051
                        -----------------------------------------
Total Dipole Moment    :     82.40138      57.71441     -54.77632
                        -----------------------------------------
Magnitude (a.u.)       :    114.54862
Magnitude (Debye)      :    291.15946


Timings for individual modules:

Sum of individual times         ...        0.152 sec (=   0.003 min)
STO integral calculation        ...        0.023 sec (=   0.000 min)  15.3 %
SCF iterations                  ...        0.129 sec (=   0.002 min)  84.7 %
                             ****ORCA TERMINATED NORMALLY****
TOTAL RUN TIME: 0 days 0 hours 0 minutes 0 seconds 416 msec

