
                                 *****************
                                 * O   R   C   A *
                                 *****************

           --- An Ab Initio, DFT and Semiempirical electronic structure package ---

                  #######################################################
                  #                        -***-                        #
                  #  Department of molecular theory and spectroscopy    #
                  #              Directorship: Frank Neese              #
                  # Max Planck Institute for Chemical Energy Conversion #
                  #                  D-45470 Muelheim/Ruhr              #
                  #                       Germany                       #
                  #                                                     #
                  #                  All rights reserved                #
                  #                        -***-                        #
                  #######################################################


                         Program Version 3.0.3 - RELEASE   -


 With contributions from (in alphabetic order):
   Ute Becker             : Parallelization
   Dmytro Bykov           : SCF Hessian
   Dmitry Ganyushin       : Spin-Orbit,Spin-Spin,Magnetic field MRCI
   Andreas Hansen         : Spin unrestricted coupled pair/coupled cluster methods
   Dimitrios Liakos       : Extrapolation schemes; parallel MDCI
   Robert Izsak           : Overlap fitted RIJCOSX, COSX-SCS-MP3
   Christian Kollmar      : KDIIS, OOCD, Brueckner-CCSD(T), CCSD density
   Simone Kossmann        : Meta GGA functionals, TD-DFT gradient, OOMP2, MP2 Hessian
   Taras Petrenko         : DFT Hessian,TD-DFT gradient, ASA and ECA modules, normal mode analysis, Resonance Raman, ABS, FL, XAS/XES, NRVS
   Christoph Reimann      : Effective Core Potentials
   Michael Roemelt        : Restricted open shell CIS
   Christoph Riplinger    : Improved optimizer, TS searches, QM/MM, DLPNO-CCSD
   Barbara Sandhoefer     : DKH picture change effects
   Igor Schapiro          : Molecular dynamics
   Kantharuban Sivalingam : CASSCF convergence, NEVPT2
   Boris Wezisla          : Elementary symmetry handling
   Frank Wennmohs         : Technical directorship


 We gratefully acknowledge several colleagues who have allowed us to
 interface, adapt or use parts of their codes:
   Stefan Grimme, W. Hujo, H. Kruse, T. Risthaus : VdW corrections, initial TS optimization,
                                                   DFT functionals, gCP
   Ed Valeev                                     : LibInt (2-el integral package), F12 methods
   Garnet Chan, S. Sharma, R. Olivares           : DMRG
   Ulf Ekstrom                                   : XCFun DFT Library
   Mihaly Kallay                                 : mrcc  (arbitrary order and MRCC methods)
   Andreas Klamt, Michael Diedenhofen            : otool_cosmo (COSMO solvation model)
   Frank Weinhold                                : gennbo (NPA and NBO analysis)
   Christopher J. Cramer and Donald G. Truhlar   : smd solvation model


 Your calculation uses the libint2 library for the computation of 2-el integrals
 For citations please refer to: http://libint.valeyev.net

 This ORCA versions uses:
   CBLAS   interface :  Fast vector & matrix operations
   LAPACKE interface :  Fast linear algebra routines
   SCALAPACK package :  Parallel linear algebra routines


leaving
================================================================================
                                        WARNINGS
                       Please study these warnings very carefully!
================================================================================
Now building the actual basis set

WARNING: Direct SCF is incompatible with Method<>HF and Method<>DFT
  ===> : conventional SCF is chosen

WARNING: The NDO methods need Guess=HUECKEL or Guess=HCORE or Guess=MOREAD
  ===> : Guess is set to Hueckel

WARNING: The NDO methods need %rel::SOCType==1
  ===> : %rel::SOCType is set to 1

WARNING: The NDO methods cannot have frozencore=1
  ===> : %method FrozenCore=0 end


INFO   : the flag for use of LIBINT has been found!

================================================================================
                                       INPUT FILE
================================================================================
NAME = /Users/mattyjones/GoogleDrive/Boise/Code/MorphCT/tests/output_EZ/donor_polymer/chromophores/input_orca/pair/00011-00015.inp
|  1> # ================================================================
|  2> # Orca input file made by Matty Jones
|  3> # ================================================================
|  4> ! ZINDO/S 
|  5> ! NOPOP
|  6> ! NOMOPRINT
|  7> * xyz 0   1
|  8>  C  -23.99176  5.52742  11.82350
|  9>  C  -23.03109  6.35708  12.40373
| 10>  C  -22.47596  5.84686  13.61855
| 11>  C  -23.00095  4.60808  13.99950
| 12>  S  -24.10875  4.21477  12.82967
| 13>  H  -22.72515  7.35959  11.95684
| 14>  C  -21.36322  6.70340  14.41561
| 15>  C  -19.97513  7.25034  13.57217
| 16>  C  -19.96832  8.67330  12.63184
| 17>  H  -19.10947  8.51111  11.86442
| 18>  H  -20.96771  8.68514  12.05145
| 19>  H  -19.67584  6.39093  12.86444
| 20>  H  -19.15099  7.39196  14.36838
| 21>  H  -21.85443  7.65875  14.85972
| 22>  H  -20.95107  6.06927  15.30491
| 23>  C  -19.74486  10.14973  13.28610
| 24>  C  -19.69266  11.41223  12.14683
| 25>  C  -18.15784  11.92444  11.67853
| 26>  H  -17.52005  12.12483  12.62318
| 27>  H  -18.25646  12.90242  11.06621
| 28>  H  -17.65449  11.10934  11.03172
| 29>  H  -20.23658  11.04599  11.19716
| 30>  H  -20.25698  12.31482  12.58656
| 31>  H  -20.61892  10.38178  14.00697
| 32>  H  -18.75467  10.17180  13.87968
| 33>  C  22.20237  -4.62505  -14.48750
| 34>  C  22.20269  -5.76101  -13.67665
| 35>  C  22.28122  -5.47933  -12.27709
| 36>  C  22.34323  -4.11405  -11.98133
| 37>  S  22.29826  -3.33818  -13.44640
| 38>  H  22.55570  -6.76176  -14.11928
| 39>  C  22.24759  -6.84923  -11.40334
| 40>  C  20.89514  -7.76110  -12.07101
| 41>  C  20.13857  -9.29418  -11.91219
| 42>  H  19.00640  -9.11270  -11.79199
| 43>  H  20.55583  -9.78801  -10.95979
| 44>  H  21.10689  -7.79851  -13.20282
| 45>  H  20.01985  -7.02696  -11.87542
| 46>  H  22.05389  -6.64054  -10.28777
| 47>  H  23.20737  -7.47196  -11.54494
| 48>  C  20.39788  -10.27176  -13.20203
| 49>  C  19.61898  -11.78074  -13.22277
| 50>  C  18.11926  -11.87063  -13.99208
| 51>  H  17.29072  -12.01815  -13.19786
| 52>  H  18.11930  -12.77313  -14.71832
| 53>  H  17.92135  -10.89810  -14.58520
| 54>  H  19.47062  -12.10780  -12.12757
| 55>  H  20.32385  -12.52406  -13.75265
| 56>  H  21.53236  -10.48061  -13.28933
| 57>  H  20.05376  -9.71709  -14.15982
| 58>  H  -24.53256  5.70008  10.92833
| 59>  H  -22.74454  4.03946  14.85654
| 60>  H  22.15155  -4.59197  -15.54576
| 61>  H  22.40587  -3.66831  -11.02164
| 62> *
| 63> 
| 64>                          ****END OF INPUT****
================================================================================

                       ****************************
                       * Single Point Calculation *
                       ****************************

---------------------------------
CARTESIAN COORDINATES (ANGSTROEM)
---------------------------------
  C    -23.991760    5.527420   11.823500
  C    -23.031090    6.357080   12.403730
  C    -22.475960    5.846860   13.618550
  C    -23.000950    4.608080   13.999500
  S    -24.108750    4.214770   12.829670
  H    -22.725150    7.359590   11.956840
  C    -21.363220    6.703400   14.415610
  C    -19.975130    7.250340   13.572170
  C    -19.968320    8.673300   12.631840
  H    -19.109470    8.511110   11.864420
  H    -20.967710    8.685140   12.051450
  H    -19.675840    6.390930   12.864440
  H    -19.150990    7.391960   14.368380
  H    -21.854430    7.658750   14.859720
  H    -20.951070    6.069270   15.304910
  C    -19.744860   10.149730   13.286100
  C    -19.692660   11.412230   12.146830
  C    -18.157840   11.924440   11.678530
  H    -17.520050   12.124830   12.623180
  H    -18.256460   12.902420   11.066210
  H    -17.654490   11.109340   11.031720
  H    -20.236580   11.045990   11.197160
  H    -20.256980   12.314820   12.586560
  H    -20.618920   10.381780   14.006970
  H    -18.754670   10.171800   13.879680
  C     22.202370   -4.625050  -14.487500
  C     22.202690   -5.761010  -13.676650
  C     22.281220   -5.479330  -12.277090
  C     22.343230   -4.114050  -11.981330
  S     22.298260   -3.338180  -13.446400
  H     22.555700   -6.761760  -14.119280
  C     22.247590   -6.849230  -11.403340
  C     20.895140   -7.761100  -12.071010
  C     20.138570   -9.294180  -11.912190
  H     19.006400   -9.112700  -11.791990
  H     20.555830   -9.788010  -10.959790
  H     21.106890   -7.798510  -13.202820
  H     20.019850   -7.026960  -11.875420
  H     22.053890   -6.640540  -10.287770
  H     23.207370   -7.471960  -11.544940
  C     20.397880  -10.271760  -13.202030
  C     19.618980  -11.780740  -13.222770
  C     18.119260  -11.870630  -13.992080
  H     17.290720  -12.018150  -13.197860
  H     18.119300  -12.773130  -14.718320
  H     17.921350  -10.898100  -14.585200
  H     19.470620  -12.107800  -12.127570
  H     20.323850  -12.524060  -13.752650
  H     21.532360  -10.480610  -13.289330
  H     20.053760   -9.717090  -14.159820
  H    -24.532560    5.700080   10.928330
  H    -22.744540    4.039460   14.856540
  H     22.151550   -4.591970  -15.545760
  H     22.405870   -3.668310  -11.021640

----------------------------
CARTESIAN COORDINATES (A.U.)
----------------------------
  NO LB      ZA    FRAG    MASS        X           Y           Z
   0 C     4.0000    0    12.011        -45.337855870766525         10.445310027159005         22.343176944417916
   1 C     4.0000    0    12.011        -43.522452665692398         12.013140211428111         23.439652739103046
   2 C     4.0000    0    12.011        -42.473408996968693         11.048964143378811         25.735329841113263
   3 C     4.0000    0    12.011        -43.465496320016015          8.708009203199842         26.455221011830563
   4 S     6.0000    0    32.060        -45.558934931173980          7.964761017467273         24.244562688585464
   5 H     1.0000    0     1.008        -42.944309852280533         13.907609557945504         22.595153027114979
   6 C     4.0000    0    12.011        -40.370635138709162         12.667590166127718         27.241554953416532
   7 C     4.0000    0    12.011        -37.747525189474409         13.701156977814607         25.647684343021993
   8 C     4.0000    0    12.011        -37.734656154502403         16.390161677339190         23.870718167511825
   9 H     1.0000    0     1.008        -36.111664864384146         16.083666995678506         22.420504537817980
  10 H     1.0000    0     1.008        -39.623229555481970         16.412536034764820         22.773940016645270
  11 H     1.0000    0     1.008        -37.181949054853121         12.077107441061345         24.310268466261906
  12 H     1.0000    0     1.008        -36.190126293464552         13.968779992900535         27.152303188111436
  13 H     1.0000    0     1.008        -41.298887512952618         14.472940028169386         28.080801226752300
  14 H     1.0000    0     1.008        -39.591784512613522         11.469258132824235         28.922088404312703
  15 C     4.0000    0    12.011        -37.312377952616366         19.180210033244546         25.107090387891141
  16 C     4.0000    0    12.011        -37.213734248425673         21.565989277320124         22.954182095298677
  17 C     4.0000    0    12.011        -34.313344783560659         22.533925900375930         22.069223346783357
  18 H     1.0000    0     1.008        -33.108096352607028         22.912608120352409         23.854353139192064
  19 H     1.0000    0     1.008        -34.499709574887973         24.382040264828234         20.912106240460695
  20 H     1.0000    0     1.008        -33.362151134051395         20.993610128616716         20.846929586101751
  21 H     1.0000    0     1.008        -38.241594087188126         20.873895978032806         21.159565877697684
  22 H     1.0000    0     1.008        -38.280144500320112         23.271637188536108         23.785151368167870
  23 H     1.0000    0     1.008        -38.964111977231575         19.618720982620971         26.469337266050957
  24 H     1.0000    0     1.008        -35.441190032068882         19.221916289020186         26.228794026464119
  25 C     4.0000    0    12.011         41.956398823989176         -8.740077855692485        -27.377407365184133
  26 C     4.0000    0    12.011         41.957003536352033        -10.886731154781669        -25.845122929494089
  27 C     4.0000    0    12.011         42.105403729648870        -10.354433097378731        -23.200337821503258
  28 C     4.0000    0    12.011         42.222585647213322         -7.774427801258725        -22.641432420134709
  29 S     6.0000    0    32.060         42.137604662970887         -6.308245985733244        -25.410013487158718
  30 H     1.0000    0     1.008         42.624095758887577        -12.777874583303362        -26.681572408151649
  31 C     4.0000    0    12.011         42.041852239765099        -12.943168928237455        -21.549189611989565
  32 C     4.0000    0    12.011         39.486092129943302        -14.666353497976226        -22.810903059824767
  33 C     4.0000    0    12.011         38.056382028802503        -17.563454839368219        -22.510776755235398
  34 H     1.0000    0     1.008         35.916890791760878        -17.220507340584192        -22.283631673938061
  35 H     1.0000    0     1.008         38.844889155442480        -18.496658296082551        -20.711001585288795
  36 H     1.0000    0     1.008         39.886241638801124        -14.737048152646221        -24.949713995458179
  37 H     1.0000    0     1.008         37.832033742183370        -13.279029954019279        -22.441291525291110
  38 H     1.0000    0     1.008         41.675812287624552        -12.548801981349428        -19.441067828771036
  39 H     1.0000    0     1.008         43.855573588580043        -14.119958083614236        -21.816774832552817
  40 C     4.0000    0    12.011         38.546406912589624        -19.410813313366958        -24.948221111812384
  41 C     4.0000    0    12.011         37.074499226878359        -22.262372254931446        -24.987414031829910
  42 C     4.0000    0    12.011         34.240439149313978        -22.432239737109629        -26.441199243916866
  43 H     1.0000    0     1.008         32.674725458314867        -22.711012136385690        -24.940340953833932
  44 H     1.0000    0     1.008         34.240514738359330        -24.137717572973557        -27.813593951415836
  45 H     1.0000    0     1.008         33.866443450149625        -20.594424380087190        -27.562033608468241
  46 H     1.0000    0     1.008         36.794139457649798        -22.880426084291731        -22.917785969959354
  47 H     1.0000    0     1.008         38.406510486895428        -23.667043484797791        -25.988742115672100
  48 H     1.0000    0     1.008         40.690263417000601        -19.805482616436411        -25.113194203303706
  49 H     1.0000    0     1.008         37.896114355384640        -18.362638918664857        -26.758181905620816
  50 H     1.0000    0     1.008        -46.359819763991140         10.771590141441848         20.651550801115633
  51 H     1.0000    0     1.008        -42.980951642017267          7.633473128929539         28.074791897646435
  52 H     1.0000    0     1.008         41.860362941863301         -8.677565715182370        -29.377228943667635
  53 H     1.0000    0     1.008         42.340958092242154         -6.932101274324666        -20.827881146671825

--------------------------------
INTERNAL COORDINATES (ANGSTROEM)
--------------------------------
 C      0   0   0   0.000000     0.000     0.000
 C      1   0   0   1.395668     0.000     0.000
 C      2   1   0   1.429784   114.101     0.000
 C      3   2   1   1.398325   113.693     0.000
 S      1   2   3   1.658045   105.480     0.000
 H      2   1   3   1.139446   123.009   180.766
 C      3   2   1   1.614669   119.847   180.687
 C      7   3   2   1.713864   118.980   307.195
 C      8   7   3   1.705603   122.738    83.065
 H      9   8   7   1.163126   104.499   204.192
 H      9   8   7   1.155757   106.377   318.285
 H      8   7   3   1.152841   105.931   320.876
 H      8   7   3   1.154649   106.133   204.821
 H      7   3   2   1.162418   109.473    68.580
 H      7   3   2   1.167409   109.341   186.386
 C      9   8   7   1.630287   122.333    82.992
 C     16   9   8   1.701343   114.048   176.844
 C     17  16   9   1.684439   116.089   262.328
 H     18  17  16   1.157280   109.140   310.001
 H     18  17  16   1.158062   109.038   190.538
 H     18  17  16   1.155903   109.750    70.381
 H     17  16   9   1.154060   107.523    22.433
 H     17  16   9   1.151733   108.110   140.435
 H     16   9   8   1.156495   109.164   296.397
 H     16   9   8   1.154686   109.947    55.794
 C     21  18  17  49.873549   148.958   182.219
 C     26  21  18   1.395666    87.690   123.380
 C     27  26  21   1.429783   114.102   303.444
 C     28  27  26   1.398324   113.693     0.000
 S     26  21  18   1.658047    58.673    13.670
 H     27  26  21   1.149799   119.001   147.430
 C     28  27  26   1.625176   111.043   178.910
 C     32  28  27   1.762501   104.378   311.924
 C     33  32  28   1.716961   139.911   175.103
 H     34  33  32   1.152906   107.566   130.868
 H     34  33  32   1.151104   107.450    12.814
 H     33  32  28   1.152055   104.355    52.892
 H     33  32  28   1.159030   100.828   299.895
 H     32  28  27   1.151333   111.816   193.792
 H     32  28  27   1.152832   111.843    68.712
 C     34  33  32   1.639083   112.957   251.630
 C     41  34  33   1.698274   117.839   184.043
 C     42  41  34   1.687921   117.412    92.545
 H     43  42  41   1.157163   109.278   250.385
 H     43  42  41   1.158417   109.099   130.901
 H     43  42  41   1.156190   109.944    10.813
 H     42  41  34   1.152581   107.432   331.125
 H     42  41  34   1.153317   107.336   213.549
 H     41  34  33   1.156842   108.796    62.420
 H     41  34  33   1.159068   108.535   304.692
 H      1   2   3   1.060003   127.260   180.000
 H      4   3   2   1.059996   127.206   180.000
 H     26  21  18   1.059996   117.560   254.866
 H     29  28  27   1.060006   127.206   180.000

---------------------------
INTERNAL COORDINATES (A.U.)
---------------------------
 C      0   0   0   0.000000     0.000     0.000
 C      1   0   0   2.637430     0.000     0.000
 C      2   1   0   2.701900   114.101     0.000
 C      3   2   1   2.642452   113.693     0.000
 S      1   2   3   3.133252   105.480     0.000
 H      2   1   3   2.153240   123.009   180.766
 C      3   2   1   3.051282   119.847   180.687
 C      7   3   2   3.238733   118.980   307.195
 C      8   7   3   3.223123   122.738    83.065
 H      9   8   7   2.197990   104.499   204.192
 H      9   8   7   2.184063   106.377   318.285
 H      8   7   3   2.178553   105.931   320.876
 H      8   7   3   2.181970   106.133   204.821
 H      7   3   2   2.196651   109.473    68.580
 H      7   3   2   2.206083   109.341   186.386
 C      9   8   7   3.080796   122.333    82.992
 C     16   9   8   3.215072   114.048   176.844
 C     17  16   9   3.183129   116.089   262.328
 H     18  17  16   2.186941   109.140   310.001
 H     18  17  16   2.188419   109.038   190.538
 H     18  17  16   2.184341   109.750    70.381
 H     17  16   9   2.180857   107.523    22.433
 H     17  16   9   2.176459   108.110   140.435
 H     16   9   8   2.185460   109.164   296.397
 H     16   9   8   2.182041   109.947    55.794
 C     21  18  17  94.247349   148.958   182.219
 C     26  21  18   2.637426    87.690   123.380
 C     27  26  21   2.701898   114.102   303.444
 C     28  27  26   2.642449   113.693     0.000
 S     26  21  18   3.133254    58.673    13.670
 H     27  26  21   2.172805   119.001   147.430
 C     28  27  26   3.071137   111.043   178.910
 C     32  28  27   3.330645   104.378   311.924
 C     33  32  28   3.244587   139.911   175.103
 H     34  33  32   2.178676   107.566   130.868
 H     34  33  32   2.175271   107.450    12.814
 H     33  32  28   2.177069   104.355    52.892
 H     33  32  28   2.190248   100.828   299.895
 H     32  28  27   2.175704   111.816   193.792
 H     32  28  27   2.178536   111.843    68.712
 C     34  33  32   3.097417   112.957   251.630
 C     41  34  33   3.209274   117.839   184.043
 C     42  41  34   3.189709   117.412    92.545
 H     43  42  41   2.186721   109.278   250.385
 H     43  42  41   2.189092   109.099   130.901
 H     43  42  41   2.184882   109.944    10.813
 H     42  41  34   2.178062   107.432   331.125
 H     42  41  34   2.179452   107.336   213.549
 H     41  34  33   2.186115   108.796    62.420
 H     41  34  33   2.190321   108.535   304.692
 H      1   2   3   2.003115   127.260   180.000
 H      4   3   2   2.003103   127.206   180.000
 H     26  21  18   2.003102   117.560   254.866
 H     29  28  27   2.003121   127.206   180.000

----------------------------
SLATER BASIS SET DIM= 120
----------------------------
  0 C     2 shells
 l=0 nsto= 1
    2       1.625000000000        1.000000000000
 l=1 nsto= 1
    2       1.625000000000        1.000000000000
  1 C     2 shells
 l=0 nsto= 1
    2       1.625000000000        1.000000000000
 l=1 nsto= 1
    2       1.625000000000        1.000000000000
  2 C     2 shells
 l=0 nsto= 1
    2       1.625000000000        1.000000000000
 l=1 nsto= 1
    2       1.625000000000        1.000000000000
  3 C     2 shells
 l=0 nsto= 1
    2       1.625000000000        1.000000000000
 l=1 nsto= 1
    2       1.625000000000        1.000000000000
  4 S     2 shells
 l=0 nsto= 1
    3       1.925000000000        1.000000000000
 l=1 nsto= 1
    3       1.925000000000        1.000000000000
  5 H     1 shells
 l=0 nsto= 1
    1       1.200000000000        1.000000000000
  6 C     2 shells
 l=0 nsto= 1
    2       1.625000000000        1.000000000000
 l=1 nsto= 1
    2       1.625000000000        1.000000000000
  7 C     2 shells
 l=0 nsto= 1
    2       1.625000000000        1.000000000000
 l=1 nsto= 1
    2       1.625000000000        1.000000000000
  8 C     2 shells
 l=0 nsto= 1
    2       1.625000000000        1.000000000000
 l=1 nsto= 1
    2       1.625000000000        1.000000000000
  9 H     1 shells
 l=0 nsto= 1
    1       1.200000000000        1.000000000000
 10 H     1 shells
 l=0 nsto= 1
    1       1.200000000000        1.000000000000
 11 H     1 shells
 l=0 nsto= 1
    1       1.200000000000        1.000000000000
 12 H     1 shells
 l=0 nsto= 1
    1       1.200000000000        1.000000000000
 13 H     1 shells
 l=0 nsto= 1
    1       1.200000000000        1.000000000000
 14 H     1 shells
 l=0 nsto= 1
    1       1.200000000000        1.000000000000
 15 C     2 shells
 l=0 nsto= 1
    2       1.625000000000        1.000000000000
 l=1 nsto= 1
    2       1.625000000000        1.000000000000
 16 C     2 shells
 l=0 nsto= 1
    2       1.625000000000        1.000000000000
 l=1 nsto= 1
    2       1.625000000000        1.000000000000
 17 C     2 shells
 l=0 nsto= 1
    2       1.625000000000        1.000000000000
 l=1 nsto= 1
    2       1.625000000000        1.000000000000
 18 H     1 shells
 l=0 nsto= 1
    1       1.200000000000        1.000000000000
 19 H     1 shells
 l=0 nsto= 1
    1       1.200000000000        1.000000000000
 20 H     1 shells
 l=0 nsto= 1
    1       1.200000000000        1.000000000000
 21 H     1 shells
 l=0 nsto= 1
    1       1.200000000000        1.000000000000
 22 H     1 shells
 l=0 nsto= 1
    1       1.200000000000        1.000000000000
 23 H     1 shells
 l=0 nsto= 1
    1       1.200000000000        1.000000000000
 24 H     1 shells
 l=0 nsto= 1
    1       1.200000000000        1.000000000000
 25 C     2 shells
 l=0 nsto= 1
    2       1.625000000000        1.000000000000
 l=1 nsto= 1
    2       1.625000000000        1.000000000000
 26 C     2 shells
 l=0 nsto= 1
    2       1.625000000000        1.000000000000
 l=1 nsto= 1
    2       1.625000000000        1.000000000000
 27 C     2 shells
 l=0 nsto= 1
    2       1.625000000000        1.000000000000
 l=1 nsto= 1
    2       1.625000000000        1.000000000000
 28 C     2 shells
 l=0 nsto= 1
    2       1.625000000000        1.000000000000
 l=1 nsto= 1
    2       1.625000000000        1.000000000000
 29 S     2 shells
 l=0 nsto= 1
    3       1.925000000000        1.000000000000
 l=1 nsto= 1
    3       1.925000000000        1.000000000000
 30 H     1 shells
 l=0 nsto= 1
    1       1.200000000000        1.000000000000
 31 C     2 shells
 l=0 nsto= 1
    2       1.625000000000        1.000000000000
 l=1 nsto= 1
    2       1.625000000000        1.000000000000
 32 C     2 shells
 l=0 nsto= 1
    2       1.625000000000        1.000000000000
 l=1 nsto= 1
    2       1.625000000000        1.000000000000
 33 C     2 shells
 l=0 nsto= 1
    2       1.625000000000        1.000000000000
 l=1 nsto= 1
    2       1.625000000000        1.000000000000
 34 H     1 shells
 l=0 nsto= 1
    1       1.200000000000        1.000000000000
 35 H     1 shells
 l=0 nsto= 1
    1       1.200000000000        1.000000000000
 36 H     1 shells
 l=0 nsto= 1
    1       1.200000000000        1.000000000000
 37 H     1 shells
 l=0 nsto= 1
    1       1.200000000000        1.000000000000
 38 H     1 shells
 l=0 nsto= 1
    1       1.200000000000        1.000000000000
 39 H     1 shells
 l=0 nsto= 1
    1       1.200000000000        1.000000000000
 40 C     2 shells
 l=0 nsto= 1
    2       1.625000000000        1.000000000000
 l=1 nsto= 1
    2       1.625000000000        1.000000000000
 41 C     2 shells
 l=0 nsto= 1
    2       1.625000000000        1.000000000000
 l=1 nsto= 1
    2       1.625000000000        1.000000000000
 42 C     2 shells
 l=0 nsto= 1
    2       1.625000000000        1.000000000000
 l=1 nsto= 1
    2       1.625000000000        1.000000000000
 43 H     1 shells
 l=0 nsto= 1
    1       1.200000000000        1.000000000000
 44 H     1 shells
 l=0 nsto= 1
    1       1.200000000000        1.000000000000
 45 H     1 shells
 l=0 nsto= 1
    1       1.200000000000        1.000000000000
 46 H     1 shells
 l=0 nsto= 1
    1       1.200000000000        1.000000000000
 47 H     1 shells
 l=0 nsto= 1
    1       1.200000000000        1.000000000000
 48 H     1 shells
 l=0 nsto= 1
    1       1.200000000000        1.000000000000
 49 H     1 shells
 l=0 nsto= 1
    1       1.200000000000        1.000000000000
 50 H     1 shells
 l=0 nsto= 1
    1       1.200000000000        1.000000000000
 51 H     1 shells
 l=0 nsto= 1
    1       1.200000000000        1.000000000000
 52 H     1 shells
 l=0 nsto= 1
    1       1.200000000000        1.000000000000
 53 H     1 shells
 l=0 nsto= 1
    1       1.200000000000        1.000000000000
------------------------------------------------------------------------------
                           ORCA NDO INTEGRAL CALCULATION
------------------------------------------------------------------------------

--------------
NDO PARAMETERS
--------------

Gamma integral treatment              ... Mataga-Nishimoto
Nuclear repulsuion treatment          ... Direct (ZA*ZB/RAB)
Interaction factors:
s-s (sigma) =    1.0000
s-p (sigma) =    1.0000
s-d (sigma) =    1.0000
p-p (sigma) =    1.2670  p-p(pi) =    0.5850
p-d (sigma) =    1.0000  p-d(pi) =    1.0000
d-d (sigma) =    1.0000  d-d(pi) =    1.0000 d-d (delta) =    1.0000

fGamma parameter for Mataga-Nishimoto gamma integrals:    1.2000

--------------------------
Parameters for Element H :
--------------------------
 One-electron parameters (in eV)
  U(s)  =   -13.060000 Beta(s) =    12.000000 Neff(s) =     1.000000
 One-center electron repulsion parameters (in eV)
  G(s,s)=    12.850000
--------------------------
Parameters for Element C :
--------------------------
 One-electron parameters (in eV)
  U(s)  =   -50.870766 Beta(s) =    17.000000 Neff(s) =     2.000000
  U(p)  =   -41.599980 Beta(p) =    17.000000 Neff(p) =     2.000000 
 One-center electron repulsion parameters (in eV)
  G(s,s)=    11.110000
  G(s,p)=    11.110000 G(p,p)  =    11.110000
 Slater-Condon parameters (in eV)
 F2(p,p)=     4.5098 G1(s,p)=    6.8977
--------------------------
Parameters for Element S :
--------------------------
 One-electron parameters (in eV)
  U(s)  =   -69.509597 Beta(s) =    15.000000 Neff(s) =     2.000000
  U(p)  =   -60.725746 Beta(p) =    15.000000 Neff(p) =     4.000000 
 One-center electron repulsion parameters (in eV)
  G(s,s)=    10.090000
  G(s,p)=    10.090000 G(p,p)  =    10.090000
 Slater-Condon parameters (in eV)
 F2(p,p)=     4.5377 G1(s,p)=    3.0756

 Number of atoms                    ....   54
 Number of basis functions          ....  120

 Overlap integrals                  .... done
 One electron matrix                .... done
 Nuclear repulsion                  .... done
 Integral list                      .... done
 Electron-electron repulsion        .... done
-------------------------------------------------------------------------------
                                 ORCA SCF
-------------------------------------------------------------------------------

------------
SCF SETTINGS
------------
Hamiltonian:
 ZDO-Hamiltonian        Method          .... INDO


General Settings:
 Integral files         IntName         .... /Users/mattyjones/GoogleDrive/Boise/Code/MorphCT/tests/output_EZ/donor_polymer/chromophores/input_orca/pair/00011-00015
 Hartree-Fock type      HFTyp           .... RHF
 Total Charge           Charge          ....    0
 Multiplicity           Mult            ....    1
 Number of Electrons    NEL             ....  124
 Basis Dimension        Dim             ....  120
 Nuclear Repulsion      ENuc            ....    624.5848356618 Eh

Convergence Acceleration:
 DIIS                   CNVDIIS         .... on
   Start iteration      DIISMaxIt       ....    12
   Startup error        DIISStart       ....  0.200000
   # of expansion vecs  DIISMaxEq       ....     5
   Bias factor          DIISBfac        ....   1.050
   Max. coefficient     DIISMaxC        ....  10.000
 Newton-Raphson         CNVNR           .... off
 SOSCF                  CNVSOSCF        .... on
   Start iteration      SOSCFMaxIt      ....   150
   Startup grad/error   SOSCFStart      ....  0.003300
 Level Shifting         CNVShift        .... on
   Level shift para.    LevelShift      ....    0.2500
   Turn off err/grad.   ShiftErr        ....    0.0010
 Zerner damping         CNVZerner       .... off
 Static damping         CNVDamp         .... on
   Fraction old density DampFac         ....    0.7000
   Max. Damping (<1)    DampMax         ....    0.9800
   Min. Damping (>=0)   DampMin         ....    0.0000
   Turn off err/grad.   DampErr         ....    0.1000
 Fernandez-Rico         CNVRico         .... off

SCF Procedure:
 Maximum # iterations   MaxIter         ....   125
 SCF integral mode      SCFMode         .... Conventional
 Integral Buffer length BufferLength    .... 1048576
 Integral index format  IndFormat       ....     0
 Integral value format  ValFormat       ....     0
 Integral Storage       Thresh          ....  1.000e-08 Eh

Convergence Tolerance:
 Convergence Check Mode ConvCheckMode   .... Total+1el-Energy
 Energy Change          TolE            ....  1.000e-06 Eh
 1-El. energy change                    ....  1.000e-03 Eh
 Orbital Gradient       TolG            ....  5.000e-05
 Orbital Rotation angle TolX            ....  5.000e-05
 DIIS Error             TolErr          ....  1.000e-06


Diagonalization of the overlap matrix:
Smallest eigenvalue                        ... 1.693e-01
Time for diagonalization                   ...    0.003 sec
Threshold for overlap eigenvalues          ... 1.000e-08
Number of eigenvalues below threshold      ... 0
Time for construction of square roots      ...    0.001 sec
Total time needed                          ...    0.004 sec

-------------------------------
INITIAL GUESS: EXTENDED HUECKEL
-------------------------------
EHT matrix was read from disk
EHT matrix was diagonalized
Initial density was built
                      ------------------
                      INITIAL GUESS DONE
                      ------------------

 InCore treatment chosen:
   Memory dedicated               ...    1024 MB
   Memory needed                  ...      0 MB
   Number of tiny    integrals    ...       0
   Number of small   integrals    ...       0
   Number of regular integrals    ...    7392

--------------
SCF ITERATIONS
--------------
ITER       Energy         Delta-E        Max-DP      RMS-DP      [F,P]     Damp
  0    -20.7610840249   0.000000000000 0.04585713  0.00144107  0.0931383 0.7000
  1    -20.8029019697  -0.041817944837 0.04551386  0.00136016  0.0714774 0.7000
                               ***Turning on DIIS***
  2    -20.8338737463  -0.030971776604 0.12237977  0.00350116  0.0520485 0.0000
  3    -20.9135031050  -0.079629358685 0.02476542  0.00073710  0.0172739 0.0000
  4    -20.8995337777   0.013969327288 0.01720291  0.00050648  0.0092302 0.0000
  5    -20.9169955258  -0.017461748078 0.01209919  0.00034180  0.0055172 0.0000
  6    -20.9198944000  -0.002898874182 0.00862173  0.00024293  0.0032097 0.0000
                      *** Initiating the SOSCF procedure ***
                           *** Shutting down DIIS ***
                      *** Re-Reading the Fockian *** 
                      *** Removing any level shift *** 
ITER      Energy       Delta-E        Grad      Rot      Max-DP    RMS-DP
  7    -20.91571639   0.0041780097  0.003030  0.003030  0.005236  0.000138
  8    -20.91348230   0.0022340947  0.000859  0.002425  0.002675  0.000065
  9    -20.91349769  -0.0000153963  0.000376  0.002380  0.003066  0.000069
 10    -20.91350339  -0.0000056965  0.000042  0.000110  0.000243  0.000005
                 **** Energy Check signals convergence ****
              ***Rediagonalizing the Fockian in SOSCF/NRSCF***

               *****************************************************
               *                     SUCCESS                       *
               *           SCF CONVERGED AFTER  11 CYCLES          *
               *****************************************************


----------------
TOTAL SCF ENERGY
----------------

Total Energy       :          -20.91350345 Eh            -569.08536 eV

Components:
Nuclear Repulsion  :          624.58483566 Eh           16995.81743 eV
Electronic Energy  :         -645.49833912 Eh          -17564.90279 eV

One Electron Energy:        -1200.69251193 Eh          -32672.50429 eV
Two Electron Energy:          555.19417282 Eh           15107.60150 eV


---------------
SCF CONVERGENCE
---------------

  Last Energy change         ...   -6.5904e-08  Tolerance :   1.0000e-06
  Last MAX-Density change    ...    1.1333e-04  Tolerance :   1.0000e-05
  Last RMS-Density change    ...    1.8649e-06  Tolerance :   1.0000e-06
  Last Orbital Gradient      ...    1.7259e-05  Tolerance :   5.0000e-05
  Last Orbital Rotation      ...    3.5871e-05  Tolerance :   5.0000e-05

             **** THE GBW FILE WAS UPDATED (/Users/mattyjones/GoogleDrive/Boise/Code/MorphCT/tests/output_EZ/donor_polymer/chromophores/input_orca/pair/00011-00015.gbw) ****
             **** DENSITY FILE WAS UPDATED (/Users/mattyjones/GoogleDrive/Boise/Code/MorphCT/tests/output_EZ/donor_polymer/chromophores/input_orca/pair/00011-00015.scfp.tmp) ****
             **** ENERGY FILE WAS UPDATED (/Users/mattyjones/GoogleDrive/Boise/Code/MorphCT/tests/output_EZ/donor_polymer/chromophores/input_orca/pair/00011-00015.en.tmp) ****
----------------
ORBITAL ENERGIES
----------------

  NO   OCC          E(Eh)            E(eV) 
   0   2.0000      -1.565674       -42.6042 
   1   2.0000      -1.556774       -42.3620 
   2   2.0000      -1.390793       -37.8454 
   3   2.0000      -1.388888       -37.7936 
   4   2.0000      -1.290059       -35.1043 
   5   2.0000      -1.289694       -35.0943 
   6   2.0000      -1.189674       -32.3727 
   7   2.0000      -1.180152       -32.1136 
   8   2.0000      -1.121213       -30.5098 
   9   2.0000      -1.111472       -30.2447 
  10   2.0000      -1.041752       -28.3475 
  11   2.0000      -1.028563       -27.9886 
  12   2.0000      -0.970260       -26.4021 
  13   2.0000      -0.947421       -25.7806 
  14   2.0000      -0.893100       -24.3025 
  15   2.0000      -0.887562       -24.1518 
  16   2.0000      -0.867397       -23.6031 
  17   2.0000      -0.863130       -23.4870 
  18   2.0000      -0.837989       -22.8029 
  19   2.0000      -0.829038       -22.5593 
  20   2.0000      -0.778883       -21.1945 
  21   2.0000      -0.774152       -21.0657 
  22   2.0000      -0.728393       -19.8206 
  23   2.0000      -0.726147       -19.7595 
  24   2.0000      -0.696798       -18.9608 
  25   2.0000      -0.692622       -18.8472 
  26   2.0000      -0.665002       -18.0956 
  27   2.0000      -0.664344       -18.0777 
  28   2.0000      -0.660189       -17.9647 
  29   2.0000      -0.648590       -17.6490 
  30   2.0000      -0.614323       -16.7166 
  31   2.0000      -0.613144       -16.6845 
  32   2.0000      -0.584812       -15.9135 
  33   2.0000      -0.584801       -15.9132 
  34   2.0000      -0.580222       -15.7886 
  35   2.0000      -0.577409       -15.7121 
  36   2.0000      -0.575882       -15.6705 
  37   2.0000      -0.572374       -15.5751 
  38   2.0000      -0.560421       -15.2498 
  39   2.0000      -0.559200       -15.2166 
  40   2.0000      -0.527313       -14.3489 
  41   2.0000      -0.525212       -14.2917 
  42   2.0000      -0.521676       -14.1955 
  43   2.0000      -0.514717       -14.0062 
  44   2.0000      -0.508037       -13.8244 
  45   2.0000      -0.495573       -13.4852 
  46   2.0000      -0.493967       -13.4415 
  47   2.0000      -0.492091       -13.3905 
  48   2.0000      -0.491274       -13.3683 
  49   2.0000      -0.484601       -13.1867 
  50   2.0000      -0.482141       -13.1197 
  51   2.0000      -0.479762       -13.0550 
  52   2.0000      -0.467947       -12.7335 
  53   2.0000      -0.463293       -12.6068 
  54   2.0000      -0.460818       -12.5395 
  55   2.0000      -0.450591       -12.2612 
  56   2.0000      -0.440197       -11.9784 
  57   2.0000      -0.430523       -11.7151 
  58   2.0000      -0.356324        -9.6961 
  59   2.0000      -0.347539        -9.4570 
  60   2.0000      -0.305231        -8.3057 
  61   2.0000      -0.304983        -8.2990 
  62   0.0000       0.006781         0.1845 
  63   0.0000       0.008179         0.2226 
  64   0.0000       0.057801         1.5729 
  65   0.0000       0.065879         1.7927 
  66   0.0000       0.066930         1.8213 
  67   0.0000       0.075675         2.0592 
  68   0.0000       0.086163         2.3446 
  69   0.0000       0.088085         2.3969 
  70   0.0000       0.103976         2.8293 
  71   0.0000       0.105363         2.8671 
  72   0.0000       0.107310         2.9201 
  73   0.0000       0.108448         2.9510 
  74   0.0000       0.122161         3.3242 
  75   0.0000       0.123781         3.3683 
  76   0.0000       0.141945         3.8625 
  77   0.0000       0.143387         3.9018 
  78   0.0000       0.156087         4.2473 
  79   0.0000       0.156515         4.2590 
  80   0.0000       0.164921         4.4877 
  81   0.0000       0.168260         4.5786 
  82   0.0000       0.174092         4.7373 
  83   0.0000       0.174794         4.7564 
  84   0.0000       0.200347         5.4517 
  85   0.0000       0.204752         5.5716 
  86   0.0000       0.227790         6.1985 
  87   0.0000       0.233982         6.3670 
  88   0.0000       0.234534         6.3820 
  89   0.0000       0.235228         6.4009 
  90   0.0000       0.237243         6.4557 
  91   0.0000       0.237871         6.4728 
  92   0.0000       0.239158         6.5078 
  93   0.0000       0.239429         6.5152 
  94   0.0000       0.240659         6.5487 
  95   0.0000       0.240811         6.5528 
  96   0.0000       0.242095         6.5877 
  97   0.0000       0.242524         6.5994 
  98   0.0000       0.243177         6.6172 
  99   0.0000       0.244401         6.6505 
 100   0.0000       0.245490         6.6801 
 101   0.0000       0.248070         6.7503 
 102   0.0000       0.255128         6.9424 
 103   0.0000       0.258145         7.0245 
 104   0.0000       0.267099         7.2681 
 105   0.0000       0.267195         7.2708 
 106   0.0000       0.276972         7.5368 
 107   0.0000       0.284807         7.7500 
 108   0.0000       0.304141         8.2761 
 109   0.0000       0.309583         8.4242 
 110   0.0000       0.310340         8.4448 
 111   0.0000       0.311969         8.4891 
 112   0.0000       0.332912         9.0590 
 113   0.0000       0.342081         9.3085 
 114   0.0000       0.352029         9.5792 
 115   0.0000       0.355738         9.6801 
 116   0.0000       0.415083        11.2950 
 117   0.0000       0.421462        11.4686 
 118   0.0000       0.422751        11.5036 
 119   0.0000       0.427926        11.6445 
-------
TIMINGS
-------

Total SCF time: 0 days 0 hours 0 min 0 sec 

Total time                  ....       0.112 sec
Sum of individual times     ....       0.090 sec  ( 80.0%)

Fock matrix formation       ....       0.043 sec  ( 38.2%)
Diagonalization             ....       0.023 sec  ( 20.9%)
Density matrix formation    ....       0.005 sec  (  4.6%)
Population analysis         ....       0.000 sec  (  0.0%)
Initial guess               ....       0.003 sec  (  2.7%)
Orbital Transformation      ....       0.000 sec  (  0.0%)
Orbital Orthonormalization  ....       0.000 sec  (  0.0%)
DIIS solution               ....       0.010 sec  (  8.8%)
SOSCF solution              ....       0.006 sec  (  4.9%)

-------------------------   --------------------
FINAL SINGLE POINT ENERGY       -20.913503454224
-------------------------   --------------------


                            ***************************************
                            *     ORCA property calculations      *
                            ***************************************

                                    ---------------------
                                    Active property flags
                                    ---------------------
   (+) Dipole Moment


------------------------------------------------------------------------------
                       ORCA ELECTRIC PROPERTIES CALCULATION
------------------------------------------------------------------------------

Dipole Moment Calculation                       ... on
Quadrupole Moment Calculation                   ... off
Polarizability Calculation                      ... off
GBWName                                         ... /Users/mattyjones/GoogleDrive/Boise/Code/MorphCT/tests/output_EZ/donor_polymer/chromophores/input_orca/pair/00011-00015.gbw
Electron density file                           ... /Users/mattyjones/GoogleDrive/Boise/Code/MorphCT/tests/output_EZ/donor_polymer/chromophores/input_orca/pair/00011-00015.scfp.tmp

-------------
DIPOLE MOMENT
-------------
                                X             Y             Z
Electronic contribution:    -39.35871      20.34237     -12.97676
Nuclear contribution   :     23.93214     -11.95253       4.81656
                        -----------------------------------------
Total Dipole Moment    :    -15.42657       8.38984      -8.16019
                        -----------------------------------------
Magnitude (a.u.)       :     19.36381
Magnitude (Debye)      :     49.21890


Timings for individual modules:

Sum of individual times         ...        0.192 sec (=   0.003 min)
STO integral calculation        ...        0.047 sec (=   0.001 min)  24.3 %
SCF iterations                  ...        0.145 sec (=   0.002 min)  75.7 %
                             ****ORCA TERMINATED NORMALLY****
TOTAL RUN TIME: 0 days 0 hours 0 minutes 0 seconds 555 msec

