
                                 *****************
                                 * O   R   C   A *
                                 *****************

           --- An Ab Initio, DFT and Semiempirical electronic structure package ---

                  #######################################################
                  #                        -***-                        #
                  #  Department of molecular theory and spectroscopy    #
                  #              Directorship: Frank Neese              #
                  # Max Planck Institute for Chemical Energy Conversion #
                  #                  D-45470 Muelheim/Ruhr              #
                  #                       Germany                       #
                  #                                                     #
                  #                  All rights reserved                #
                  #                        -***-                        #
                  #######################################################


                         Program Version 4.0.1.2 - RELEASE -


 With contributions from (in alphabetic order):
   Daniel Aravena         : Magnetic Properties
   Michael Atanasov       : Ab Initio Ligand Field Theory
   Ute Becker             : Parallelization
   Martin Brehm           : Molecular dynamics
   Dmytro Bykov           : SCF Hessian
   Vijay G. Chilkuri      : MRCI spin determinant printing
   Dipayan Datta          : RHF DLPNO-CCSD density
   Achintya Kumar Dutta   : EOM-CC, STEOM-CC
   Dmitry Ganyushin       : Spin-Orbit,Spin-Spin,Magnetic field MRCI
   Yang Guo               : DLPNO-NEVPT2, CIM, IAO-localization
   Andreas Hansen         : Spin unrestricted coupled pair/coupled cluster methods
   Lee Huntington         : MR-EOM, pCC
   Robert Izsak           : Overlap fitted RIJCOSX, COSX-SCS-MP3, EOM
   Christian Kollmar      : KDIIS, OOCD, Brueckner-CCSD(T), CCSD density
   Simone Kossmann        : Meta GGA functionals, TD-DFT gradient, OOMP2, MP2 Hessian
   Martin Krupicka        : AUTO-CI
   Dagmar Lenk            : GEPOL surface
   Dimitrios Liakos       : Extrapolation schemes; parallel MDCI
   Dimitrios Manganas     : ROCIS; embedding schemes
   Dimitrios Pantazis     : SARC Basis sets
   Taras Petrenko         : DFT Hessian,TD-DFT gradient, ASA, ECA, R-Raman, ABS, FL, XAS/XES, NRVS
   Peter Pinski           : DLPNO-MP2
   Christoph Reimann      : Effective Core Potentials
   Marius Retegan         : Local ZFS, SOC
   Christoph Riplinger    : Optimizer, TS searches, QM/MM, DLPNO-CCSD(T), (RO)-DLPNO pert. Triples
   Tobias Risthaus        : Range-separated hybrids, TD-DFT gradient, RPA, STAB
   Michael Roemelt        : Restricted open shell CIS
   Masaaki Saitow         : Open-shell DLPNO
   Barbara Sandhoefer     : DKH picture change effects
   Kantharuban Sivalingam : CASSCF convergence, NEVPT2, FIC-MRCI
   Georgi Stoychev        : AutoAux
   Boris Wezisla          : Elementary symmetry handling
   Frank Wennmohs         : Technical directorship


 We gratefully acknowledge several colleagues who have allowed us to
 interface, adapt or use parts of their codes:
   Stefan Grimme, W. Hujo, H. Kruse,             : VdW corrections, initial TS optimization,
                  C. Bannwarth                     DFT functionals, gCP, sTDA/sTD-DF
   Ed Valeev                                     : LibInt (2-el integral package), F12 methods
   Garnet Chan, S. Sharma, J. Yang, R. Olivares  : DMRG
   Ulf Ekstrom                                   : XCFun DFT Library
   Mihaly Kallay                                 : mrcc  (arbitrary order and MRCC methods)
   Andreas Klamt, Michael Diedenhofen            : otool_cosmo (COSMO solvation model)
   Jiri Pittner, Ondrej Demel                    : Mk-CCSD
   Frank Weinhold                                : gennbo (NPA and NBO analysis)
   Christopher J. Cramer and Donald G. Truhlar   : smd solvation model


 Your calculation uses the libint2 library for the computation of 2-el integrals
 For citations please refer to: http://libint.valeyev.net

 This ORCA versions uses:
   CBLAS   interface :  Fast vector & matrix operations
   LAPACKE interface :  Fast linear algebra routines
   SCALAPACK package :  Parallel linear algebra routines


leaving
Your calculation utilizes the basis: def2-SVP
   F. Weigend and R. Ahlrichs, Phys. Chem. Chem. Phys. 7, 3297 (2005).

================================================================================
                                        WARNINGS
                       Please study these warnings very carefully!
================================================================================

Warning: TCutStore was < 0. Adjusted to Thresh (uncritical)

WARNING: Direct SCF is incompatible with Method<>HF and Method<>DFT
  ===> : conventional SCF is chosen

WARNING: The NDO methods need Guess=HUECKEL or Guess=HCORE or Guess=MOREAD
  ===> : Guess is set to Hueckel

WARNING: The NDO methods need %rel::SOCType==1
  ===> : %rel::SOCType is set to 1

WARNING: The NDO methods cannot have frozencore=1
  ===> : %method FrozenCore=0 end

INFO   : the flag for use of LIBINT has been found!

================================================================================
                                       INPUT FILE
================================================================================
NAME = /home/mattyjones/Software/morphct/tests/output_EZ/donor_polymer/chromophores/input_orca/pair/00011-00020.inp
|  1> # ================================================================
|  2> # Orca input file made by Matty Jones
|  3> # ================================================================
|  4> ! ZINDO/S 
|  5> ! NOPOP
|  6> ! NOMOPRINT
|  7> * xyz 0   1
|  8>  C  -21.60303  -4.89635  7.38940
|  9>  C  -20.42903  -4.26082  7.79651
| 10>  C  -19.86695  -4.78831  9.00071
| 11>  C  -20.60083  -5.84571  9.54722
| 12>  S  -21.88840  -6.06917  8.52612
| 13>  H  -19.96266  -3.37942  7.23720
| 14>  C  -18.49765  -4.23433  9.67142
| 15>  C  -18.01514  -2.60439  10.00637
| 16>  C  -17.14521  -1.64011  8.89242
| 17>  H  -16.09532  -1.49772  9.36935
| 18>  H  -17.02311  -2.27183  7.93306
| 19>  H  -18.98255  -2.03396  10.25488
| 20>  H  -17.35466  -2.67317  10.94967
| 21>  H  -18.40171  -4.72580  10.72613
| 22>  H  -17.61037  -4.63752  9.02821
| 23>  C  -17.70272  -0.15980  8.49266
| 24>  C  -17.10983  0.48998  7.03340
| 25>  C  -15.70860  1.42524  6.99834
| 26>  H  -14.78497  0.73146  6.94053
| 27>  H  -15.65138  2.08056  7.94880
| 28>  H  -15.73607  2.10509  6.05961
| 29>  H  -16.93695  -0.40151  6.32076
| 30>  H  -17.95685  1.15139  6.60891
| 31>  H  -18.85394  -0.19422  8.40864
| 32>  H  -17.41340  0.58970  9.32614
| 33>  C  16.23331  -2.34364  -8.50252
| 34>  C  17.07439  -1.24886  -8.29771
| 35>  C  16.44945  -0.14912  -7.63116
| 36>  C  15.10814  -0.37665  -7.30803
| 37>  S  14.77073  -1.90504  -7.85631
| 38>  H  18.16618  -1.19920  -8.62489
| 39>  C  17.45420  1.10583  -7.40730
| 40>  C  17.20833  2.67411  -7.99201
| 41>  C  18.58670  3.61435  -7.62002
| 42>  H  18.26557  4.72345  -7.66486
| 43>  H  18.90331  3.36078  -6.53994
| 44>  H  17.07281  2.63952  -9.13096
| 45>  H  16.28964  3.13759  -7.48630
| 46>  H  17.55646  1.24927  -6.24869
| 47>  H  18.52194  0.81396  -7.78799
| 48>  C  19.85721  3.38361  -8.62764
| 49>  C  20.08177  4.37814  -9.98049
| 50>  C  21.11529  5.68476  -9.73169
| 51>  H  20.58663  6.47040  -9.06822
| 52>  H  21.38529  6.15624  -10.75451
| 53>  H  22.08104  5.31881  -9.20973
| 54>  H  20.52535  3.73261  -10.82638
| 55>  H  19.05424  4.78550  -10.30342
| 56>  H  20.82890  3.47184  -7.99979
| 57>  H  19.79986  2.30199  -9.04133
| 58>  H  -22.18872  -4.67574  6.53389
| 59>  H  -20.38034  -6.39039  10.42944
| 60>  H  16.47796  -3.26188  -8.97218
| 61>  H  14.44570  0.28849  -6.81572
| 62> *
| 63> 
| 64>                          ****END OF INPUT****
================================================================================

                       ****************************
                       * Single Point Calculation *
                       ****************************

---------------------------------
CARTESIAN COORDINATES (ANGSTROEM)
---------------------------------
  C    -21.603030   -4.896350    7.389400
  C    -20.429030   -4.260820    7.796510
  C    -19.866950   -4.788310    9.000710
  C    -20.600830   -5.845710    9.547220
  S    -21.888400   -6.069170    8.526120
  H    -19.962660   -3.379420    7.237200
  C    -18.497650   -4.234330    9.671420
  C    -18.015140   -2.604390   10.006370
  C    -17.145210   -1.640110    8.892420
  H    -16.095320   -1.497720    9.369350
  H    -17.023110   -2.271830    7.933060
  H    -18.982550   -2.033960   10.254880
  H    -17.354660   -2.673170   10.949670
  H    -18.401710   -4.725800   10.726130
  H    -17.610370   -4.637520    9.028210
  C    -17.702720   -0.159800    8.492660
  C    -17.109830    0.489980    7.033400
  C    -15.708600    1.425240    6.998340
  H    -14.784970    0.731460    6.940530
  H    -15.651380    2.080560    7.948800
  H    -15.736070    2.105090    6.059610
  H    -16.936950   -0.401510    6.320760
  H    -17.956850    1.151390    6.608910
  H    -18.853940   -0.194220    8.408640
  H    -17.413400    0.589700    9.326140
  C     16.233310   -2.343640   -8.502520
  C     17.074390   -1.248860   -8.297710
  C     16.449450   -0.149120   -7.631160
  C     15.108140   -0.376650   -7.308030
  S     14.770730   -1.905040   -7.856310
  H     18.166180   -1.199200   -8.624890
  C     17.454200    1.105830   -7.407300
  C     17.208330    2.674110   -7.992010
  C     18.586700    3.614350   -7.620020
  H     18.265570    4.723450   -7.664860
  H     18.903310    3.360780   -6.539940
  H     17.072810    2.639520   -9.130960
  H     16.289640    3.137590   -7.486300
  H     17.556460    1.249270   -6.248690
  H     18.521940    0.813960   -7.787990
  C     19.857210    3.383610   -8.627640
  C     20.081770    4.378140   -9.980490
  C     21.115290    5.684760   -9.731690
  H     20.586630    6.470400   -9.068220
  H     21.385290    6.156240  -10.754510
  H     22.081040    5.318810   -9.209730
  H     20.525350    3.732610  -10.826380
  H     19.054240    4.785500  -10.303420
  H     20.828900    3.471840   -7.999790
  H     19.799860    2.301990   -9.041330
  H    -22.188720   -4.675740    6.533890
  H    -20.380340   -6.390390   10.429440
  H     16.477960   -3.261880   -8.972180
  H     14.445700    0.288490   -6.815720

----------------------------
CARTESIAN COORDINATES (A.U.)
----------------------------
  NO LB      ZA    FRAG     MASS         X           Y           Z
   0 C     4.0000    0    12.011  -40.823810   -9.252761   13.963942
   1 C     4.0000    0    12.011  -38.605272   -8.051783   14.733269
   2 C     4.0000    0    12.011  -37.543095   -9.048595   17.008877
   3 C     4.0000    0    12.011  -38.929927  -11.046791   18.041631
   4 S     6.0000    0    32.060  -41.363082  -11.469069   16.112032
   5 H     1.0000    0     1.008  -37.723960   -6.386178   13.676326
   6 C     4.0000    0    12.011  -34.955493   -8.001724   18.276335
   7 C     4.0000    0    12.011  -34.043681   -4.921584   18.909299
   8 C     4.0000    0    12.011  -32.399751   -3.099359   16.804238
   9 H     1.0000    0     1.008  -30.415747   -2.830281   17.705506
  10 H     1.0000    0     1.008  -32.169016   -4.293137   14.991311
  11 H     1.0000    0     1.008  -35.871821   -3.843627   19.378915
  12 H     1.0000    0     1.008  -32.795555   -5.051559   20.691878
  13 H     1.0000    0     1.008  -34.774192   -8.930468   20.269448
  14 H     1.0000    0     1.008  -33.278776   -8.763643   17.060844
  15 C     4.0000    0    12.011  -33.453293   -0.301978   16.048802
  16 C     4.0000    0    12.011  -32.332893    0.925928   13.291200
  17 C     4.0000    0    12.011  -29.684952    2.693313   13.224946
  18 H     1.0000    0     1.008  -27.939544    1.382259   13.115701
  19 H     1.0000    0     1.008  -29.576822    3.931689   15.021055
  20 H     1.0000    0     1.008  -29.736863    3.978044   11.451003
  21 H     1.0000    0     1.008  -32.006197   -0.758744   11.944505
  22 H     1.0000    0     1.008  -33.933529    2.175812   12.489030
  23 H     1.0000    0     1.008  -35.628783   -0.367023   15.890027
  24 H     1.0000    0     1.008  -32.906557    1.114372   17.623850
  25 C     4.0000    0    12.011   30.676510   -4.428838  -16.067434
  26 C     4.0000    0    12.011   32.265921   -2.360003  -15.680399
  27 C     4.0000    0    12.011   31.084956   -0.281796  -14.420802
  28 C     4.0000    0    12.011   28.550247   -0.711765  -13.810175
  29 S     6.0000    0    32.060   27.912634   -3.600004  -14.846274
  30 H     1.0000    0     1.008   34.329105   -2.266160  -16.298680
  31 C     4.0000    0    12.011   32.983658    2.089716  -13.997768
  32 C     4.0000    0    12.011   32.519031    5.053336  -15.102710
  33 C     4.0000    0    12.011   35.123773    6.830132  -14.399751
  34 H     1.0000    0     1.008   34.516925    8.926027  -14.484486
  35 H     1.0000    0     1.008   35.722079    6.350954  -12.358696
  36 H     1.0000    0     1.008   32.262935    4.987970  -17.255014
  37 H     1.0000    0     1.008   30.782958    5.929186  -14.147057
  38 H     1.0000    0     1.008   33.176901    2.360778  -11.808313
  39 H     1.0000    0     1.008   35.001394    1.538161  -14.717168
  40 C     4.0000    0    12.011   37.524689    6.394096  -16.303877
  41 C     4.0000    0    12.011   37.949046    8.273486  -18.860393
  42 C     4.0000    0    12.011   39.902115   10.742640  -18.390229
  43 H     1.0000    0     1.008   38.903093   12.227284  -17.136452
  44 H     1.0000    0     1.008   40.412341   11.633608  -20.323079
  45 H     1.0000    0     1.008   41.727118   10.051094  -17.403867
  46 H     1.0000    0     1.008   38.787290    7.053611  -20.458893
  47 H     1.0000    0     1.008   36.007295    9.043284  -19.470642
  48 H     1.0000    0     1.008   39.360917    6.560827  -15.117412
  49 H     1.0000    0     1.008   37.416313    4.350131  -17.085638
  50 H     1.0000    0     1.008  -41.930604   -8.835868   12.347263
  51 H     1.0000    0     1.008  -38.513261  -12.076087   19.708785
  52 H     1.0000    0     1.008   31.138832   -6.164060  -16.954963
  53 H     1.0000    0     1.008   27.298417    0.545167  -12.879844

--------------------------------
INTERNAL COORDINATES (ANGSTROEM)
--------------------------------
 C      0   0   0     0.000000000000     0.00000000     0.00000000
 C      1   0   0     1.395676514455     0.00000000     0.00000000
 C      2   1   0     1.429782244434   114.10185946     0.00000000
 C      3   2   1     1.398337510939   113.69231722     0.00000000
 S      1   2   3     1.658033518268   105.47960065     0.00000000
 H      2   1   3     1.143326118393   123.46730643   181.35704674
 C      3   2   1     1.622260224039   123.64527492   179.28659078
 C      7   3   2     1.732544892983   129.51382835    48.29308103
 C      8   7   3     1.710993490870   123.08848737   269.54983773
 H      9   8   7     1.161897650011   105.14405581   247.94505621
 H      9   8   7     1.155140761120   106.63319109     2.69384040
 H      8   7   3     1.150230286986   105.90798662    32.51505558
 H      8   7   3     1.153594126545   105.15585842   148.45890668
 H      7   3   2     1.167544615250   107.40345786   170.17272232
 H      7   3   2     1.167710186048   107.20054968   284.69003416
 C      9   8   7     1.631546246295   119.80984420   127.21177767
 C     16   9   8     1.703869815479   115.90924966   200.25278187
 C     17  16   9     1.685047769085   121.25464995   270.16205250
 H     18  17  16     1.156617940981   109.40039302    84.27647699
 H     18  17  16     1.155894736730   109.79928618   323.49661436
 H     18  17  16     1.159381143671   108.82089086   203.60849474
 H     17  16   9     1.154338634933   106.63798273    32.63979626
 H     17  16   9     1.155464334629   106.13200023   148.71853747
 H     16   9   8     1.154795040343   109.35573751   321.54280817
 H     16   9   8     1.157646415275   109.00268033    80.26899541
 C     19  18  17    34.786171497750   141.93193387   139.18490703
 C     26  19  18     1.395674013121   113.75772516    56.21957224
 C     27  26  19     1.429778645001   114.10124223   352.98374438
 C     28  27  26     1.398318781215   113.69336614     0.00000000
 S     26  19  18     1.658040283135    10.58773303    16.37169968
 H     27  26  19     1.140841037174   124.66538157   173.31496381
 C     28  27  26     1.623125184513   112.85659953   179.93842200
 C     32  28  27     1.691697372286   125.38900530   121.32000774
 C     33  32  28     1.709482867595   108.51110160   184.64360529
 H     34  33  32     1.155524951050   107.18109272   200.27412635
 H     34  33  32     1.153738464038   107.70380555   317.28682406
 H     33  32  28     1.147505660552   109.40710434   303.61975491
 H     33  32  28     1.146537234720   109.80116115    65.44070371
 H     32  28  27     1.171925455522   106.55886138   242.62052346
 H     32  28  27     1.170547598605   109.08762253   356.42812859
 C     34  33  32     1.637905574842   114.46240741    79.17027422
 C     41  34  33     1.694024863159   120.75782894    93.24197317
 C     42  41  34     1.684434876984   114.75743035    94.52983736
 H     43  42  41     1.156245668576   109.34697921   287.57289876
 H     43  42  41     1.158168443190   109.17031581   167.57871435
 H     43  42  41     1.157166671919   109.47446418    47.81961586
 H     42  41  34     1.152823529167   107.95344808   214.82131880
 H     42  41  34     1.151539775865   108.26129573   333.40661927
 H     41  34  33     1.160242048669   107.81951378   215.19739889
 H     41  34  33     1.159452570397   108.21284704   331.52594034
 H      1   2   3     1.059999485047   127.25976150   179.99965883
 H      4   3   2     1.060002014574   127.20544230   179.99996224
 H     26  19  18     1.059999450802   118.62535641   229.86102226
 H     29  28  27     1.060003353438   127.20620002   180.00061098

---------------------------
INTERNAL COORDINATES (A.U.)
---------------------------
 C      0   0   0     0.000000000000     0.00000000     0.00000000
 C      1   0   0     2.637446383865     0.00000000     0.00000000
 C      2   1   0     2.701896873124   114.10185946     0.00000000
 C      3   2   1     2.642474938464   113.69231722     0.00000000
 S      1   2   3     3.133229270388   105.47960065     0.00000000
 H      2   1   3     2.160573245522   123.46730643   181.35704674
 C      3   2   1     3.065627541388   123.64527492   179.28659078
 C      7   3   2     3.274035362461   129.51382835    48.29308103
 C      8   7   3     3.233309114666   123.08848737   269.54983773
 H      9   8   7     2.195668354167   105.14405581   247.94505621
 H      9   8   7     2.182899684645   106.63319109     2.69384040
 H      8   7   3     2.173620233345   105.90798662    32.51505558
 H      8   7   3     2.179976968871   105.15585842   148.45890668
 H      7   3   2     2.206339571958   107.40345786   170.17272232
 H      7   3   2     2.206652455421   107.20054968   284.69003416
 C      9   8   7     3.083175580325   119.80984420   127.21177767
 C     16   9   8     3.219847319110   115.90924966   200.25278187
 C     17  16   9     3.184278806147   121.25464995   270.16205250
 H     18  17  16     2.185691150035   109.40039302    84.27647699
 H     18  17  16     2.184324492061   109.79928618   323.49661436
 H     18  17  16     2.190912846371   108.82089086   203.60849474
 H     17  16   9     2.181383885829   106.63798273    32.63979626
 H     17  16   9     2.183511149963   106.13200023   148.71853747
 H     16   9   8     2.182246367058   109.35573751   321.54280817
 H     16   9   8     2.187634684786   109.00268033    80.26899541
 C     19  18  17    65.736337378365   141.93193387   139.18490703
 C     26  19  18     2.637441657029   113.75772516    56.21957224
 C     27  26  19     2.701890071180   114.10124223   352.98374438
 C     28  27  26     2.642439544416   113.69336614     0.00000000
 S     26  19  18     3.133242054135    10.58773303    16.37169968
 H     27  26  19     2.155877122597   124.66538157   173.31496381
 C     28  27  26     3.067262079800   112.85659953   179.93842200
 C     32  28  27     3.196844735095   125.38900530   121.32000774
 C     33  32  28     3.230454450384   108.51110160   184.64360529
 H     34  33  32     2.183625698398   107.18109272   200.27412635
 H     34  33  32     2.180249727202   107.70380555   317.28682406
 H     33  32  28     2.168471435569   109.40710434   303.61975491
 H     33  32  28     2.166641375965   109.80116115    65.44070371
 H     32  28  27     2.214618160307   106.55886138   242.62052346
 H     32  28  27     2.212014388083   109.08762253   356.42812859
 C     34  33  32     3.095192969675   114.46240741    79.17027422
 C     41  34  33     3.201243055423   120.75782894    93.24197317
 C     42  41  34     3.183120607925   114.75743035    94.52983736
 H     43  42  41     2.184987657141   109.34697921   287.57289876
 H     43  42  41     2.188621174578   109.17031581   167.57871435
 H     43  42  41     2.186728101228   109.47446418    47.81961586
 H     42  41  34     2.178520750865   107.95344808   214.82131880
 H     42  41  34     2.176094808703   108.26129573   333.40661927
 H     41  34  33     2.192539721044   107.81951378   215.19739889
 H     41  34  33     2.191047823321   108.21284704   331.52594034
 H      1   2   3     2.003108728836   127.25976150   179.99965883
 H      4   3   2     2.003113508949   127.20544230   179.99996224
 H     26  19  18     2.003108664122   118.62535641   229.86102226
 H     29  28  27     2.003116039036   127.20620002   180.00061098

----------------------------
SLATER BASIS SET DIM= 120
----------------------------
  0 C     2 shells
 l=0 nsto= 1
    2       1.625000000000        1.000000000000
 l=1 nsto= 1
    2       1.625000000000        1.000000000000
  1 C     2 shells
 l=0 nsto= 1
    2       1.625000000000        1.000000000000
 l=1 nsto= 1
    2       1.625000000000        1.000000000000
  2 C     2 shells
 l=0 nsto= 1
    2       1.625000000000        1.000000000000
 l=1 nsto= 1
    2       1.625000000000        1.000000000000
  3 C     2 shells
 l=0 nsto= 1
    2       1.625000000000        1.000000000000
 l=1 nsto= 1
    2       1.625000000000        1.000000000000
  4 S     2 shells
 l=0 nsto= 1
    3       1.925000000000        1.000000000000
 l=1 nsto= 1
    3       1.925000000000        1.000000000000
  5 H     1 shells
 l=0 nsto= 1
    1       1.200000000000        1.000000000000
  6 C     2 shells
 l=0 nsto= 1
    2       1.625000000000        1.000000000000
 l=1 nsto= 1
    2       1.625000000000        1.000000000000
  7 C     2 shells
 l=0 nsto= 1
    2       1.625000000000        1.000000000000
 l=1 nsto= 1
    2       1.625000000000        1.000000000000
  8 C     2 shells
 l=0 nsto= 1
    2       1.625000000000        1.000000000000
 l=1 nsto= 1
    2       1.625000000000        1.000000000000
  9 H     1 shells
 l=0 nsto= 1
    1       1.200000000000        1.000000000000
 10 H     1 shells
 l=0 nsto= 1
    1       1.200000000000        1.000000000000
 11 H     1 shells
 l=0 nsto= 1
    1       1.200000000000        1.000000000000
 12 H     1 shells
 l=0 nsto= 1
    1       1.200000000000        1.000000000000
 13 H     1 shells
 l=0 nsto= 1
    1       1.200000000000        1.000000000000
 14 H     1 shells
 l=0 nsto= 1
    1       1.200000000000        1.000000000000
 15 C     2 shells
 l=0 nsto= 1
    2       1.625000000000        1.000000000000
 l=1 nsto= 1
    2       1.625000000000        1.000000000000
 16 C     2 shells
 l=0 nsto= 1
    2       1.625000000000        1.000000000000
 l=1 nsto= 1
    2       1.625000000000        1.000000000000
 17 C     2 shells
 l=0 nsto= 1
    2       1.625000000000        1.000000000000
 l=1 nsto= 1
    2       1.625000000000        1.000000000000
 18 H     1 shells
 l=0 nsto= 1
    1       1.200000000000        1.000000000000
 19 H     1 shells
 l=0 nsto= 1
    1       1.200000000000        1.000000000000
 20 H     1 shells
 l=0 nsto= 1
    1       1.200000000000        1.000000000000
 21 H     1 shells
 l=0 nsto= 1
    1       1.200000000000        1.000000000000
 22 H     1 shells
 l=0 nsto= 1
    1       1.200000000000        1.000000000000
 23 H     1 shells
 l=0 nsto= 1
    1       1.200000000000        1.000000000000
 24 H     1 shells
 l=0 nsto= 1
    1       1.200000000000        1.000000000000
 25 C     2 shells
 l=0 nsto= 1
    2       1.625000000000        1.000000000000
 l=1 nsto= 1
    2       1.625000000000        1.000000000000
 26 C     2 shells
 l=0 nsto= 1
    2       1.625000000000        1.000000000000
 l=1 nsto= 1
    2       1.625000000000        1.000000000000
 27 C     2 shells
 l=0 nsto= 1
    2       1.625000000000        1.000000000000
 l=1 nsto= 1
    2       1.625000000000        1.000000000000
 28 C     2 shells
 l=0 nsto= 1
    2       1.625000000000        1.000000000000
 l=1 nsto= 1
    2       1.625000000000        1.000000000000
 29 S     2 shells
 l=0 nsto= 1
    3       1.925000000000        1.000000000000
 l=1 nsto= 1
    3       1.925000000000        1.000000000000
 30 H     1 shells
 l=0 nsto= 1
    1       1.200000000000        1.000000000000
 31 C     2 shells
 l=0 nsto= 1
    2       1.625000000000        1.000000000000
 l=1 nsto= 1
    2       1.625000000000        1.000000000000
 32 C     2 shells
 l=0 nsto= 1
    2       1.625000000000        1.000000000000
 l=1 nsto= 1
    2       1.625000000000        1.000000000000
 33 C     2 shells
 l=0 nsto= 1
    2       1.625000000000        1.000000000000
 l=1 nsto= 1
    2       1.625000000000        1.000000000000
 34 H     1 shells
 l=0 nsto= 1
    1       1.200000000000        1.000000000000
 35 H     1 shells
 l=0 nsto= 1
    1       1.200000000000        1.000000000000
 36 H     1 shells
 l=0 nsto= 1
    1       1.200000000000        1.000000000000
 37 H     1 shells
 l=0 nsto= 1
    1       1.200000000000        1.000000000000
 38 H     1 shells
 l=0 nsto= 1
    1       1.200000000000        1.000000000000
 39 H     1 shells
 l=0 nsto= 1
    1       1.200000000000        1.000000000000
 40 C     2 shells
 l=0 nsto= 1
    2       1.625000000000        1.000000000000
 l=1 nsto= 1
    2       1.625000000000        1.000000000000
 41 C     2 shells
 l=0 nsto= 1
    2       1.625000000000        1.000000000000
 l=1 nsto= 1
    2       1.625000000000        1.000000000000
 42 C     2 shells
 l=0 nsto= 1
    2       1.625000000000        1.000000000000
 l=1 nsto= 1
    2       1.625000000000        1.000000000000
 43 H     1 shells
 l=0 nsto= 1
    1       1.200000000000        1.000000000000
 44 H     1 shells
 l=0 nsto= 1
    1       1.200000000000        1.000000000000
 45 H     1 shells
 l=0 nsto= 1
    1       1.200000000000        1.000000000000
 46 H     1 shells
 l=0 nsto= 1
    1       1.200000000000        1.000000000000
 47 H     1 shells
 l=0 nsto= 1
    1       1.200000000000        1.000000000000
 48 H     1 shells
 l=0 nsto= 1
    1       1.200000000000        1.000000000000
 49 H     1 shells
 l=0 nsto= 1
    1       1.200000000000        1.000000000000
 50 H     1 shells
 l=0 nsto= 1
    1       1.200000000000        1.000000000000
 51 H     1 shells
 l=0 nsto= 1
    1       1.200000000000        1.000000000000
 52 H     1 shells
 l=0 nsto= 1
    1       1.200000000000        1.000000000000
 53 H     1 shells
 l=0 nsto= 1
    1       1.200000000000        1.000000000000
------------------------------------------------------------------------------
                           ORCA NDO INTEGRAL CALCULATION
------------------------------------------------------------------------------

--------------
NDO PARAMETERS
--------------

Gamma integral treatment              ... Mataga-Nishimoto
Nuclear repulsuion treatment          ... Direct (ZA*ZB/RAB)
Interaction factors:
s-s (sigma) =    1.0000
s-p (sigma) =    1.0000
s-d (sigma) =    1.0000
p-p (sigma) =    1.2670  p-p(pi) =    0.5850
p-d (sigma) =    1.0000  p-d(pi) =    1.0000
d-d (sigma) =    1.0000  d-d(pi) =    1.0000 d-d (delta) =    1.0000

fGamma parameter for Mataga-Nishimoto gamma integrals:    1.2000

--------------------------
Parameters for Element H :
--------------------------
 One-electron parameters (in eV)
  U(s)  =   -13.060000 Beta(s) =    12.000000 Neff(s) =     1.000000
 One-center electron repulsion parameters (in eV)
  G(s,s)=    12.850000
--------------------------
Parameters for Element C :
--------------------------
 One-electron parameters (in eV)
  U(s)  =   -50.870766 Beta(s) =    17.000000 Neff(s) =     2.000000
  U(p)  =   -41.599980 Beta(p) =    17.000000 Neff(p) =     2.000000 
 One-center electron repulsion parameters (in eV)
  G(s,s)=    11.110000
  G(s,p)=    11.110000 G(p,p)  =    11.110000
 Slater-Condon parameters (in eV)
 F2(p,p)=     4.5098 G1(s,p)=    6.8977
--------------------------
Parameters for Element S :
--------------------------
 One-electron parameters (in eV)
  U(s)  =   -69.509597 Beta(s) =    15.000000 Neff(s) =     2.000000
  U(p)  =   -60.725746 Beta(p) =    15.000000 Neff(p) =     4.000000 
 One-center electron repulsion parameters (in eV)
  G(s,s)=    10.090000
  G(s,p)=    10.090000 G(p,p)  =    10.090000
 Slater-Condon parameters (in eV)
 F2(p,p)=     4.5377 G1(s,p)=    3.0756

 Number of atoms                    ....   54
 Number of basis functions          ....  120

 Overlap integrals                  .... done
 One electron matrix                .... done
 Nuclear repulsion                  .... done
 Integral list                      .... done
 Electron-electron repulsion        .... done
-------------------------------------------------------------------------------
                                 ORCA SCF
-------------------------------------------------------------------------------

------------
SCF SETTINGS
------------
Hamiltonian:
 ZDO-Hamiltonian        Method          .... INDO


General Settings:
 Integral files         IntName         .... /home/mattyjones/Software/morphct/tests/output_EZ/donor_polymer/chromophores/input_orca/pair/00011-00020
 Hartree-Fock type      HFTyp           .... RHF
 Total Charge           Charge          ....    0
 Multiplicity           Mult            ....    1
 Number of Electrons    NEL             ....  124
 Basis Dimension        Dim             ....  120
 Nuclear Repulsion      ENuc            ....    632.4426280520 Eh

Convergence Acceleration:
 DIIS                   CNVDIIS         .... on
   Start iteration      DIISMaxIt       ....    12
   Startup error        DIISStart       ....  0.200000
   # of expansion vecs  DIISMaxEq       ....     5
   Bias factor          DIISBfac        ....   1.050
   Max. coefficient     DIISMaxC        ....  10.000
 Newton-Raphson         CNVNR           .... off
 SOSCF                  CNVSOSCF        .... on
   Start iteration      SOSCFMaxIt      ....   150
   Startup grad/error   SOSCFStart      ....  0.003300
 Level Shifting         CNVShift        .... on
   Level shift para.    LevelShift      ....    0.2500
   Turn off err/grad.   ShiftErr        ....    0.0010
 Zerner damping         CNVZerner       .... off
 Static damping         CNVDamp         .... on
   Fraction old density DampFac         ....    0.7000
   Max. Damping (<1)    DampMax         ....    0.9800
   Min. Damping (>=0)   DampMin         ....    0.0000
   Turn off err/grad.   DampErr         ....    0.1000
 Fernandez-Rico         CNVRico         .... off

SCF Procedure:
 Maximum # iterations   MaxIter         ....   125
 SCF integral mode      SCFMode         .... Conventional
 Integral Buffer length BufferLength    .... 1048576
 Integral index format  IndFormat       ....     0
 Integral value format  ValFormat       ....     0
 Integral Storage       Thresh          ....  1.000e-08 Eh

Convergence Tolerance:
 Convergence Check Mode ConvCheckMode   .... Total+1el-Energy
 Convergence forced     ConvForced      .... 0
 Energy Change          TolE            ....  1.000e-06 Eh
 1-El. energy change                    ....  1.000e-03 Eh
 Orbital Gradient       TolG            ....  5.000e-05
 Orbital Rotation angle TolX            ....  5.000e-05
 DIIS Error             TolErr          ....  1.000e-06


Diagonalization of the overlap matrix:
Smallest eigenvalue                        ... 1.697e-01
Time for diagonalization                   ...    0.003 sec
Threshold for overlap eigenvalues          ... 1.000e-08
Number of eigenvalues below threshold      ... 0
Time for construction of square roots      ...    0.001 sec
Total time needed                          ...    0.004 sec

-------------------------------
INITIAL GUESS: EXTENDED HUECKEL
-------------------------------
EHT matrix was read from disk
EHT matrix was diagonalized
Initial density was built
                      ------------------
                      INITIAL GUESS DONE
                      ------------------

 InCore treatment chosen:
   Memory dedicated               ...    1024 MB
   Memory needed                  ...      0 MB
   Number of tiny    integrals    ...       0
   Number of small   integrals    ...       0
   Number of regular integrals    ...    7392

--------------
SCF ITERATIONS
--------------
ITER       Energy         Delta-E        Max-DP      RMS-DP      [F,P]     Damp
  0    -23.3647226174   0.000000000000 0.04343566  0.00144359  0.0903005 0.7000
  1    -23.4065081032  -0.041785485756 0.04186236  0.00135993  0.0640948 0.7000
                               ***Turning on DIIS***
  2    -23.4374343145  -0.030926211342 0.10886891  0.00349145  0.0414371 0.0000
  3    -23.5182907272  -0.080856412662 0.01709886  0.00072239  0.0197479 0.0000
  4    -23.5032428158   0.015047911374 0.01353205  0.00049637  0.0077775 0.0000
  5    -23.5203667522  -0.017123936350 0.00949520  0.00033536  0.0045810 0.0000
  6    -23.5229182847  -0.002551532520 0.00698117  0.00023737  0.0025357 0.0000
                      *** Initiating the SOSCF procedure ***
                           *** Shutting down DIIS ***
                      *** Re-Reading the Fockian *** 
                      *** Removing any level shift *** 
ITER      Energy       Delta-E        Grad      Rot      Max-DP    RMS-DP
  7    -23.51879689   0.0041213904  0.003018  0.003018  0.004164  0.000133
  8    -23.51680273   0.0019941619  0.000807  0.002216  0.002070  0.000062
  9    -23.51681707  -0.0000143359  0.000354  0.002150  0.002314  0.000065
 10    -23.51682228  -0.0000052147  0.000035  0.000092  0.000144  0.000004
                 **** Energy Check signals convergence ****
              ***Rediagonalizing the Fockian in SOSCF/NRSCF***

               *****************************************************
               *                     SUCCESS                       *
               *           SCF CONVERGED AFTER  11 CYCLES          *
               *****************************************************


----------------
TOTAL SCF ENERGY
----------------

Total Energy       :          -23.51682233 Eh            -639.92527 eV

Components:
Nuclear Repulsion  :          632.44262805 Eh           17209.63883 eV
Electronic Energy  :         -655.95945038 Eh          -17849.56410 eV
One Electron Energy:        -1221.55869389 Eh          -33240.30197 eV
Two Electron Energy:          565.59924350 Eh           15390.73787 eV


---------------
SCF CONVERGENCE
---------------

  Last Energy change         ...   -4.9882e-08  Tolerance :   1.0000e-06
  Last MAX-Density change    ...    6.9635e-05  Tolerance :   1.0000e-05
  Last RMS-Density change    ...    1.4451e-06  Tolerance :   1.0000e-06
  Last Orbital Gradient      ...    1.2919e-05  Tolerance :   5.0000e-05
  Last Orbital Rotation      ...    2.7320e-05  Tolerance :   5.0000e-05

             **** THE GBW FILE WAS UPDATED (/home/mattyjones/Software/morphct/tests/output_EZ/donor_polymer/chromophores/input_orca/pair/00011-00020.gbw) ****
             **** DENSITY FILE WAS UPDATED (/home/mattyjones/Software/morphct/tests/output_EZ/donor_polymer/chromophores/input_orca/pair/00011-00020.scfp.tmp) ****
             **** ENERGY FILE WAS UPDATED (/home/mattyjones/Software/morphct/tests/output_EZ/donor_polymer/chromophores/input_orca/pair/00011-00020.en.tmp) ****
----------------
ORBITAL ENERGIES
----------------

  NO   OCC          E(Eh)            E(eV) 
   0   2.0000      -1.557072       -42.3701 
   1   2.0000      -1.554805       -42.3084 
   2   2.0000      -1.403712       -38.1970 
   3   2.0000      -1.384646       -37.6781 
   4   2.0000      -1.290655       -35.1205 
   5   2.0000      -1.283430       -34.9239 
   6   2.0000      -1.185899       -32.2700 
   7   2.0000      -1.168807       -31.8049 
   8   2.0000      -1.111770       -30.2528 
   9   2.0000      -1.110925       -30.2298 
  10   2.0000      -1.056684       -28.7538 
  11   2.0000      -1.045282       -28.4436 
  12   2.0000      -0.966133       -26.2898 
  13   2.0000      -0.956381       -26.0244 
  14   2.0000      -0.902811       -24.5667 
  15   2.0000      -0.894312       -24.3355 
  16   2.0000      -0.862831       -23.4788 
  17   2.0000      -0.840378       -22.8678 
  18   2.0000      -0.833499       -22.6807 
  19   2.0000      -0.832888       -22.6640 
  20   2.0000      -0.790502       -21.5107 
  21   2.0000      -0.771851       -21.0031 
  22   2.0000      -0.733889       -19.9701 
  23   2.0000      -0.727245       -19.7893 
  24   2.0000      -0.700249       -19.0547 
  25   2.0000      -0.690570       -18.7914 
  26   2.0000      -0.676086       -18.3972 
  27   2.0000      -0.673778       -18.3344 
  28   2.0000      -0.632849       -17.2207 
  29   2.0000      -0.628885       -17.1128 
  30   2.0000      -0.616138       -16.7660 
  31   2.0000      -0.611669       -16.6444 
  32   2.0000      -0.602615       -16.3980 
  33   2.0000      -0.589228       -16.0337 
  34   2.0000      -0.577416       -15.7123 
  35   2.0000      -0.575769       -15.6675 
  36   2.0000      -0.566831       -15.4242 
  37   2.0000      -0.560302       -15.2466 
  38   2.0000      -0.552329       -15.0296 
  39   2.0000      -0.551997       -15.0206 
  40   2.0000      -0.535892       -14.5824 
  41   2.0000      -0.527857       -14.3637 
  42   2.0000      -0.527440       -14.3524 
  43   2.0000      -0.518588       -14.1115 
  44   2.0000      -0.513370       -13.9695 
  45   2.0000      -0.504029       -13.7153 
  46   2.0000      -0.499221       -13.5845 
  47   2.0000      -0.496519       -13.5110 
  48   2.0000      -0.486804       -13.2466 
  49   2.0000      -0.486559       -13.2399 
  50   2.0000      -0.482778       -13.1371 
  51   2.0000      -0.471742       -12.8368 
  52   2.0000      -0.470710       -12.8087 
  53   2.0000      -0.466176       -12.6853 
  54   2.0000      -0.461204       -12.5500 
  55   2.0000      -0.455949       -12.4070 
  56   2.0000      -0.440811       -11.9951 
  57   2.0000      -0.437050       -11.8927 
  58   2.0000      -0.357430        -9.7262 
  59   2.0000      -0.356677        -9.7057 
  60   2.0000      -0.305378        -8.3097 
  61   2.0000      -0.304808        -8.2942 
  62   0.0000       0.007120         0.1937 
  63   0.0000       0.007784         0.2118 
  64   0.0000       0.059666         1.6236 
  65   0.0000       0.069390         1.8882 
  66   0.0000       0.074108         2.0166 
  67   0.0000       0.077916         2.1202 
  68   0.0000       0.083636         2.2759 
  69   0.0000       0.084030         2.2866 
  70   0.0000       0.103125         2.8062 
  71   0.0000       0.104582         2.8458 
  72   0.0000       0.107125         2.9150 
  73   0.0000       0.107883         2.9356 
  74   0.0000       0.123412         3.3582 
  75   0.0000       0.124008         3.3744 
  76   0.0000       0.142456         3.8764 
  77   0.0000       0.143228         3.8974 
  78   0.0000       0.156839         4.2678 
  79   0.0000       0.157374         4.2824 
  80   0.0000       0.165026         4.4906 
  81   0.0000       0.166522         4.5313 
  82   0.0000       0.168176         4.5763 
  83   0.0000       0.172638         4.6977 
  84   0.0000       0.203486         5.5371 
  85   0.0000       0.204484         5.5643 
  86   0.0000       0.231177         6.2907 
  87   0.0000       0.233270         6.3476 
  88   0.0000       0.233845         6.3632 
  89   0.0000       0.234982         6.3942 
  90   0.0000       0.237066         6.4509 
  91   0.0000       0.238267         6.4836 
  92   0.0000       0.238928         6.5016 
  93   0.0000       0.239774         6.5246 
  94   0.0000       0.240082         6.5330 
  95   0.0000       0.241582         6.5738 
  96   0.0000       0.242307         6.5935 
  97   0.0000       0.242938         6.6107 
  98   0.0000       0.242957         6.6112 
  99   0.0000       0.243884         6.6364 
 100   0.0000       0.246087         6.6964 
 101   0.0000       0.251432         6.8418 
 102   0.0000       0.251652         6.8478 
 103   0.0000       0.265494         7.2244 
 104   0.0000       0.265976         7.2376 
 105   0.0000       0.267769         7.2864 
 106   0.0000       0.273788         7.4501 
 107   0.0000       0.277887         7.5617 
 108   0.0000       0.294454         8.0125 
 109   0.0000       0.304201         8.2777 
 110   0.0000       0.309582         8.4241 
 111   0.0000       0.310374         8.4457 
 112   0.0000       0.340998         9.2790 
 113   0.0000       0.342955         9.3323 
 114   0.0000       0.348904         9.4942 
 115   0.0000       0.357660         9.7324 
 116   0.0000       0.411055        11.1854 
 117   0.0000       0.420763        11.4495 
 118   0.0000       0.428443        11.6585 
 119   0.0000       0.431248        11.7349 
-------
TIMINGS
-------

Total SCF time: 0 days 0 hours 0 min 0 sec 

Total time                  ....       0.115 sec
Sum of individual times     ....       0.093 sec  ( 81.0%)

Fock matrix formation       ....       0.040 sec  ( 35.3%)
Diagonalization             ....       0.025 sec  ( 22.2%)
Density matrix formation    ....       0.003 sec  (  2.6%)
Population analysis         ....       0.000 sec  (  0.0%)
Initial guess               ....       0.004 sec  (  3.7%)
Orbital Transformation      ....       0.000 sec  (  0.0%)
Orbital Orthonormalization  ....       0.000 sec  (  0.0%)
DIIS solution               ....       0.006 sec  (  4.9%)
SOSCF solution              ....       0.014 sec  ( 12.4%)

-------------------------   --------------------
FINAL SINGLE POINT ENERGY       -23.516822332855
-------------------------   --------------------


                            ***************************************
                            *     ORCA property calculations      *
                            ***************************************

                                    ---------------------
                                    Active property flags
                                    ---------------------
   (+) Dipole Moment


------------------------------------------------------------------------------
                       ORCA ELECTRIC PROPERTIES CALCULATION
------------------------------------------------------------------------------

Dipole Moment Calculation                       ... on
Quadrupole Moment Calculation                   ... off
Polarizability Calculation                      ... off
GBWName                                         ... /home/mattyjones/Software/morphct/tests/output_EZ/donor_polymer/chromophores/input_orca/pair/00011-00020.gbw
Electron density file                           ... /home/mattyjones/Software/morphct/tests/output_EZ/donor_polymer/chromophores/input_orca/pair/00011-00020.scfp.tmp
The origin for moment calculation is the CENTER OF MASS  = (-1.704774, -1.995056  0.223630)

-------------
DIPOLE MOMENT
-------------
                                X             Y             Z
Electronic contribution:   -191.97629    -216.14457      22.69224
Nuclear contribution   :    101.56316     116.52865     -11.59439
                        -----------------------------------------
Total Dipole Moment    :    -90.41313     -99.61592      11.09786
                        -----------------------------------------
Magnitude (a.u.)       :    134.98529
Magnitude (Debye)      :    343.10535


Timings for individual modules:

Sum of individual times         ...        0.145 sec (=   0.002 min)
STO integral calculation        ...        0.020 sec (=   0.000 min)  13.5 %
SCF iterations                  ...        0.125 sec (=   0.002 min)  86.5 %
                             ****ORCA TERMINATED NORMALLY****
TOTAL RUN TIME: 0 days 0 hours 0 minutes 0 seconds 438 msec

