
                                 *****************
                                 * O   R   C   A *
                                 *****************

           --- An Ab Initio, DFT and Semiempirical electronic structure package ---

                  #######################################################
                  #                        -***-                        #
                  #  Department of molecular theory and spectroscopy    #
                  #              Directorship: Frank Neese              #
                  # Max Planck Institute for Chemical Energy Conversion #
                  #                  D-45470 Muelheim/Ruhr              #
                  #                       Germany                       #
                  #                                                     #
                  #                  All rights reserved                #
                  #                        -***-                        #
                  #######################################################


                         Program Version 3.0.3 - RELEASE   -


 With contributions from (in alphabetic order):
   Ute Becker             : Parallelization
   Dmytro Bykov           : SCF Hessian
   Dmitry Ganyushin       : Spin-Orbit,Spin-Spin,Magnetic field MRCI
   Andreas Hansen         : Spin unrestricted coupled pair/coupled cluster methods
   Dimitrios Liakos       : Extrapolation schemes; parallel MDCI
   Robert Izsak           : Overlap fitted RIJCOSX, COSX-SCS-MP3
   Christian Kollmar      : KDIIS, OOCD, Brueckner-CCSD(T), CCSD density
   Simone Kossmann        : Meta GGA functionals, TD-DFT gradient, OOMP2, MP2 Hessian
   Taras Petrenko         : DFT Hessian,TD-DFT gradient, ASA and ECA modules, normal mode analysis, Resonance Raman, ABS, FL, XAS/XES, NRVS
   Christoph Reimann      : Effective Core Potentials
   Michael Roemelt        : Restricted open shell CIS
   Christoph Riplinger    : Improved optimizer, TS searches, QM/MM, DLPNO-CCSD
   Barbara Sandhoefer     : DKH picture change effects
   Igor Schapiro          : Molecular dynamics
   Kantharuban Sivalingam : CASSCF convergence, NEVPT2
   Boris Wezisla          : Elementary symmetry handling
   Frank Wennmohs         : Technical directorship


 We gratefully acknowledge several colleagues who have allowed us to
 interface, adapt or use parts of their codes:
   Stefan Grimme, W. Hujo, H. Kruse, T. Risthaus : VdW corrections, initial TS optimization,
                                                   DFT functionals, gCP
   Ed Valeev                                     : LibInt (2-el integral package), F12 methods
   Garnet Chan, S. Sharma, R. Olivares           : DMRG
   Ulf Ekstrom                                   : XCFun DFT Library
   Mihaly Kallay                                 : mrcc  (arbitrary order and MRCC methods)
   Andreas Klamt, Michael Diedenhofen            : otool_cosmo (COSMO solvation model)
   Frank Weinhold                                : gennbo (NPA and NBO analysis)
   Christopher J. Cramer and Donald G. Truhlar   : smd solvation model


 Your calculation uses the libint2 library for the computation of 2-el integrals
 For citations please refer to: http://libint.valeyev.net

 This ORCA versions uses:
   CBLAS   interface :  Fast vector & matrix operations
   LAPACKE interface :  Fast linear algebra routines
   SCALAPACK package :  Parallel linear algebra routines


leaving
================================================================================
                                        WARNINGS
                       Please study these warnings very carefully!
================================================================================
Now building the actual basis set

WARNING: Direct SCF is incompatible with Method<>HF and Method<>DFT
  ===> : conventional SCF is chosen

WARNING: The NDO methods need Guess=HUECKEL or Guess=HCORE or Guess=MOREAD
  ===> : Guess is set to Hueckel

WARNING: The NDO methods need %rel::SOCType==1
  ===> : %rel::SOCType is set to 1

WARNING: The NDO methods cannot have frozencore=1
  ===> : %method FrozenCore=0 end


INFO   : the flag for use of LIBINT has been found!

================================================================================
                                       INPUT FILE
================================================================================
NAME = /Users/mattyjones/GoogleDrive/Boise/Code/MorphCT/tests/output_EZ/donor_polymer/chromophores/input_orca/pair/00010-00016.inp
|  1> # ================================================================
|  2> # Orca input file made by Matty Jones
|  3> # ================================================================
|  4> ! ZINDO/S 
|  5> ! NOPOP
|  6> ! NOMOPRINT
|  7> * xyz 0   1
|  8>  C  18.36130  4.78874  7.80247
|  9>  C  17.53835  3.91131  8.51012
| 10>  C  18.20646  3.19719  9.55316
| 11>  C  19.56382  3.51232  9.66971
| 12>  S  19.86171  4.64203  8.49266
| 13>  H  16.41998  3.79112  8.32048
| 14>  C  17.46132  2.13426  10.50881
| 15>  C  16.24585  1.01526  10.08796
| 16>  C  15.48047  0.84550  8.58803
| 17>  H  15.40179  1.86674  8.06696
| 18>  H  16.08427  0.11661  7.93069
| 19>  H  16.70359  -0.02949  10.30212
| 20>  H  15.40721  1.20498  10.86263
| 21>  H  17.03170  2.71834  11.42988
| 22>  H  18.26243  1.38884  10.90218
| 23>  C  13.98992  0.24922  8.90344
| 24>  C  12.88222  0.07458  7.64865
| 25>  C  12.81087  -1.46950  6.99586
| 26>  H  11.81039  -1.59111  6.42533
| 27>  H  12.86480  -2.25178  7.84693
| 28>  H  13.69581  -1.62276  6.26769
| 29>  H  13.16607  0.81224  6.80927
| 30>  H  11.83648  0.34292  8.05503
| 31>  H  14.11679  -0.79609  9.38847
| 32>  H  13.47939  0.94498  9.67998
| 33>  C  -18.09001  -5.05099  -11.76445
| 34>  C  -16.89737  -4.49541  -11.29880
| 35>  C  -17.07466  -3.35161  -10.45943
| 36>  C  -18.41406  -3.00224  -10.26129
| 37>  S  -19.29607  -4.11132  -11.12293
| 38>  H  -15.87270  -4.92714  -11.55115
| 39>  C  -15.68552  -2.71318  -9.92347
| 40>  C  -15.24818  -1.08016  -9.96552
| 41>  C  -15.71106  -0.16427  -8.63321
| 42>  H  -16.80020  -0.40821  -8.35767
| 43>  H  -15.62930  0.95331  -8.91765
| 44>  H  -14.09717  -1.02869  -10.04869
| 45>  H  -15.71478  -0.61492  -10.91117
| 46>  H  -15.60296  -2.99738  -8.78837
| 47>  H  -14.79307  -3.25073  -10.45855
| 48>  C  -14.73786  -0.49211  -7.36902
| 49>  C  -15.08215  0.35375  -5.95465
| 50>  C  -14.09331  1.69102  -5.71795
| 51>  H  -14.44099  2.55725  -6.40021
| 52>  H  -13.00001  1.40674  -5.97322
| 53>  H  -14.15667  2.01602  -4.60878
| 54>  H  -16.17427  0.72146  -6.00974
| 55>  H  -14.96301  -0.36148  -5.05956
| 56>  H  -13.64134  -0.26366  -7.66094
| 57>  H  -14.81999  -1.61911  -7.11419
| 58>  H  18.08530  5.41654  6.99421
| 59>  H  20.25720  3.11279  10.36483
| 60>  H  -18.20130  -5.89558  -12.39522
| 61>  H  -18.78747  -2.19710  -9.68171
| 62> *
| 63> 
| 64>                          ****END OF INPUT****
================================================================================

                       ****************************
                       * Single Point Calculation *
                       ****************************

---------------------------------
CARTESIAN COORDINATES (ANGSTROEM)
---------------------------------
  C     18.361300    4.788740    7.802470
  C     17.538350    3.911310    8.510120
  C     18.206460    3.197190    9.553160
  C     19.563820    3.512320    9.669710
  S     19.861710    4.642030    8.492660
  H     16.419980    3.791120    8.320480
  C     17.461320    2.134260   10.508810
  C     16.245850    1.015260   10.087960
  C     15.480470    0.845500    8.588030
  H     15.401790    1.866740    8.066960
  H     16.084270    0.116610    7.930690
  H     16.703590   -0.029490   10.302120
  H     15.407210    1.204980   10.862630
  H     17.031700    2.718340   11.429880
  H     18.262430    1.388840   10.902180
  C     13.989920    0.249220    8.903440
  C     12.882220    0.074580    7.648650
  C     12.810870   -1.469500    6.995860
  H     11.810390   -1.591110    6.425330
  H     12.864800   -2.251780    7.846930
  H     13.695810   -1.622760    6.267690
  H     13.166070    0.812240    6.809270
  H     11.836480    0.342920    8.055030
  H     14.116790   -0.796090    9.388470
  H     13.479390    0.944980    9.679980
  C    -18.090010   -5.050990  -11.764450
  C    -16.897370   -4.495410  -11.298800
  C    -17.074660   -3.351610  -10.459430
  C    -18.414060   -3.002240  -10.261290
  S    -19.296070   -4.111320  -11.122930
  H    -15.872700   -4.927140  -11.551150
  C    -15.685520   -2.713180   -9.923470
  C    -15.248180   -1.080160   -9.965520
  C    -15.711060   -0.164270   -8.633210
  H    -16.800200   -0.408210   -8.357670
  H    -15.629300    0.953310   -8.917650
  H    -14.097170   -1.028690  -10.048690
  H    -15.714780   -0.614920  -10.911170
  H    -15.602960   -2.997380   -8.788370
  H    -14.793070   -3.250730  -10.458550
  C    -14.737860   -0.492110   -7.369020
  C    -15.082150    0.353750   -5.954650
  C    -14.093310    1.691020   -5.717950
  H    -14.440990    2.557250   -6.400210
  H    -13.000010    1.406740   -5.973220
  H    -14.156670    2.016020   -4.608780
  H    -16.174270    0.721460   -6.009740
  H    -14.963010   -0.361480   -5.059560
  H    -13.641340   -0.263660   -7.660940
  H    -14.819990   -1.619110   -7.114190
  H     18.085300    5.416540    6.994210
  H     20.257200    3.112790   10.364830
  H    -18.201300   -5.895580  -12.395220
  H    -18.787470   -2.197100   -9.681710

----------------------------
CARTESIAN COORDINATES (A.U.)
----------------------------
  NO LB      ZA    FRAG    MASS        X           Y           Z
   0 C     4.0000    0    12.011         34.697828462768278          9.049407126554055         14.744531468136548
   1 C     4.0000    0    12.011         33.142678340857785          7.391304724867530         16.081796166805923
   2 C     4.0000    0    12.011         34.405223268191911          6.041813498111686         18.052856113531146
   3 C     4.0000    0    12.011         36.970261933331258          6.637322894694290         18.273103694439666
   4 S     6.0000    0    32.060         37.533192451365061          8.772165405446469         16.048801548507658
   5 H     1.0000    0     1.008         31.029265324464273          7.164178540831535         15.723428502769096
   6 C     4.0000    0    12.011         32.997112736761828          4.033166898582770         19.858772893412990
   7 C     4.0000    0    12.011         30.700207312764569          1.918563354724890         19.063481649952230
   8 C     4.0000    0    12.011         29.253848724383918          1.597763446230418         16.229024729899727
   9 H     1.0000    0     1.008         29.105165072166994          3.527627363236157         15.244345133297379
  10 H     1.0000    0     1.008         30.394865364045572          0.220360964476557         14.986832153027931
  11 H     1.0000    0     1.008         31.565210553305675         -0.055728023689338         19.468185398792805
  12 H     1.0000    0     1.008         29.115407387812848          2.277082196852430         20.527395794117005
  13 H     1.0000    0     1.008         32.185248595106586          5.136918138883495         21.599342943583839
  14 H     1.0000    0     1.008         34.510991239907483          2.624527243835191         20.602134462713590
  15 C     4.0000    0    12.011         26.437117435467595          0.470957547095854         16.825063249799829
  16 C     4.0000    0    12.011         24.343867796923028          0.140935775067847         14.453853794216782
  17 C     4.0000    0    12.011         24.209035837267745         -2.776952553797279         13.220259471254328
  18 H     1.0000    0     1.008         22.318402634802212         -3.006762148943443         12.142114020068236
  19 H     1.0000    0     1.008         24.310948767670119         -4.255247513841196         14.828548692050688
  20 H     1.0000    0     1.008         25.881330082220018         -3.066571981082050         11.844217592316889
  21 H     1.0000    0     1.008         24.880266560036574          1.534911155016197         12.867655471925961
  22 H     1.0000    0     1.008         22.367705589636216          0.648024885844276         15.221800700519701
  23 H     1.0000    0     1.008         26.676866990078185         -1.504392077953369         17.741637116535653
  24 H     1.0000    0     1.008         25.472355552316781          1.785753402032904         18.292511181835039
  25 C     4.0000    0    12.011        -34.185164659896778         -9.544987805174902        -22.231588616209869
  26 C     4.0000    0    12.011        -31.931401683536937         -8.495093759690933        -21.351637641949438
  27 C     4.0000    0    12.011        -32.266431229819844         -6.333625007711806        -19.765458216919956
  28 C     4.0000    0    12.011        -34.797530413593961         -5.673411388303738        -19.391027880744801
  29 S     6.0000    0    32.060        -36.464287760973846         -7.769268848913121        -21.019291506776707
  30 H     1.0000    0     1.008        -29.995056005891851         -9.310945223488755        -21.828510031844466
  31 C     4.0000    0    12.011        -29.641337068144473         -5.127167152032461        -18.752640598183522
  32 C     4.0000    0    12.011        -28.814884240735349         -2.041206580816379        -18.832103582114911
  33 C     4.0000    0    12.011        -29.689600673604819         -0.310425312019244        -16.314402556630288
  34 H     1.0000    0     1.008        -31.747776995103813         -0.771405105127994        -15.793707417689628
  35 H     1.0000    0     1.008        -29.535096664895420          1.801494820728468        -16.851916258162849
  36 H     1.0000    0     1.008        -26.639790563330653         -1.943942376703452        -18.989272104673145
  37 H     1.0000    0     1.008        -29.696630454823005         -1.162030394270856        -20.619123100657543
  38 H     1.0000    0     1.008        -29.485321278527930         -5.664227319292881        -16.607612463569513
  39 H     1.0000    0     1.008        -27.954850979926452         -6.142989435321830        -19.763795257922109
  40 C     4.0000    0    12.011        -27.850519200072657         -0.929953127763987        -13.925429675388381
  41 C     4.0000    0    12.011        -28.501133010720405          0.668490619874643        -11.252657723354181
  42 C     4.0000    0    12.011        -26.632496220453717          3.195564686983515        -10.805359547455021
  43 H     1.0000    0     1.008        -27.289516202695456          4.832502155970120        -12.094644099584135
  44 H     1.0000    0     1.008        -24.566458638237609          2.658353341632382        -11.287749937661099
  45 H     1.0000    0     1.008        -26.752229268298965          3.809725680507922         -8.709332011493586
  46 H     1.0000    0     1.008        -30.564940716098484          1.363361816578826        -11.356762736071902
  47 H     1.0000    0     1.008        -28.275991039125028         -0.683098202889854         -9.561182758142609
  48 H     1.0000    0     1.008        -25.778396699705326         -0.498245192469677        -14.477078528402673
  49 H     1.0000    0     1.008        -28.005722407451611         -3.059674480693238        -13.443870764681229
  50 H     1.0000    0     1.008         34.176264049806015         10.235777193429817         13.217141423133357
  51 H     1.0000    0     1.008         38.280560240069583          5.882320612408733         19.586690124651007
  52 H     1.0000    0     1.008        -34.395472281340879        -11.141031600623453        -23.423571169703376
  53 H     1.0000    0     1.008        -35.503173049261498         -4.151917288838382        -18.295780408046724

--------------------------------
INTERNAL COORDINATES (ANGSTROEM)
--------------------------------
 C      0   0   0   0.000000     0.000     0.000
 C      1   0   0   1.395671     0.000     0.000
 C      2   1   0   1.429780   114.102     0.000
 C      3   2   1   1.398326   113.693     0.000
 S      1   2   3   1.658046   105.480     0.000
 H      2   1   3   1.140684   124.060   177.478
 C      3   2   1   1.611931   123.082   179.713
 C      7   3   2   1.704888   128.026    37.782
 C      8   7   3   1.692458   127.374   355.603
 H      9   8   7   1.149189   110.101   327.748
 H      9   8   7   1.152368   109.392    88.537
 H      8   7   3   1.160557   105.314   118.112
 H      8   7   3   1.157335   104.110   231.696
 H      7   3   2   1.172217   107.860   271.029
 H      7   3   2   1.162828   107.746   154.875
 C      9   8   7   1.636085   106.123   208.240
 C     16   9   8   1.682854   119.587   174.661
 C     17  16   9   1.677918   114.430    96.886
 H     18  17  16   1.158125   108.967   160.656
 H     18  17  16   1.157234   109.510    41.069
 H     18  17  16   1.156218   109.539   280.663
 H     17  16   9   1.152941   108.324   335.817
 H     17  16   9   1.153570   108.052   217.492
 H     16   9   8   1.159320   108.033   297.077
 H     16   9   8   1.160921   108.130    53.702
 C     19  18  17  35.169202   178.344    96.334
 C     26  19  18   1.395668    20.243   310.781
 C     27  26  19   1.429773   114.102   250.347
 C     28  27  26   1.398324   113.693     0.000
 S     26  19  18   1.658044   111.257   233.915
 H     27  26  19   1.140184   122.914    69.334
 C     28  27  26   1.620048   113.775   179.999
 C     32  28  27   1.691091   126.447   131.351
 C     33  32  28   1.681714   115.787    88.597
 H     34  33  32   1.149633   109.577   315.168
 H     34  33  32   1.156104   108.185   196.044
 H     33  32  28   1.155158   107.608   209.333
 H     33  32  28   1.152570   107.788   326.809
 H     32  28  27   1.173046   106.559   253.398
 H     32  28  27   1.171212   108.746     7.374
 C     34  33  32   1.628734   109.927    75.816
 C     41  34  33   1.683585   115.388   180.049
 C     42  41  34   1.679917   113.449   260.959
 H     43  42  41   1.156164   109.649    77.185
 H     43  42  41   1.158138   109.221   316.903
 H     43  42  41   1.157539   109.044   197.426
 H     42  41  34   1.153677   108.277    20.918
 H     42  41  34   1.151926   108.644   139.698
 H     41  34  33   1.157481   109.303    58.339
 H     41  34  33   1.158366   108.918   300.142
 H      1   2   3   1.059997   127.260   180.000
 H      4   3   2   1.059996   127.206   180.000
 H     26  19  18   1.059995   118.387    72.354
 H     29  28  27   1.059999   127.206   180.000

---------------------------
INTERNAL COORDINATES (A.U.)
---------------------------
 C      0   0   0   0.000000     0.000     0.000
 C      1   0   0   2.637437     0.000     0.000
 C      2   1   0   2.701893   114.102     0.000
 C      3   2   1   2.642454   113.693     0.000
 S      1   2   3   3.133253   105.480     0.000
 H      2   1   3   2.155581   124.060   177.478
 C      3   2   1   3.046108   123.082   179.713
 C      7   3   2   3.221771   128.026    37.782
 C      8   7   3   3.198283   127.374   355.603
 H      9   8   7   2.171653   110.101   327.748
 H      9   8   7   2.177659   109.392    88.537
 H      8   7   3   2.193135   105.314   118.112
 H      8   7   3   2.187046   104.110   231.696
 H      7   3   2   2.215169   107.860   271.029
 H      7   3   2   2.197426   107.746   154.875
 C      9   8   7   3.091752   106.123   208.240
 C     16   9   8   3.180132   119.587   174.661
 C     17  16   9   3.170805   114.430    96.886
 H     18  17  16   2.188539   108.967   160.656
 H     18  17  16   2.186855   109.510    41.069
 H     18  17  16   2.184934   109.539   280.663
 H     17  16   9   2.178742   108.324   335.817
 H     17  16   9   2.179931   108.052   217.492
 H     16   9   8   2.190797   108.033   297.077
 H     16   9   8   2.193822   108.130    53.702
 C     19  18  17  66.460161   178.344    96.334
 C     26  19  18   2.637430    20.243   310.781
 C     27  26  19   2.701880   114.102   250.347
 C     28  27  26   2.642450   113.693     0.000
 S     26  19  18   3.133248   111.257   233.915
 H     27  26  19   2.154636   122.914    69.334
 C     28  27  26   3.061447   113.775   179.999
 C     32  28  27   3.195699   126.447   131.351
 C     33  32  28   3.177979   115.787    88.597
 H     34  33  32   2.172491   109.577   315.168
 H     34  33  32   2.184719   108.185   196.044
 H     33  32  28   2.182933   107.608   209.333
 H     33  32  28   2.178042   107.788   326.809
 H     32  28  27   2.216736   106.559   253.398
 H     32  28  27   2.213270   108.746     7.374
 C     34  33  32   3.077861   109.927    75.816
 C     41  34  33   3.181514   115.388   180.049
 C     42  41  34   3.174584   113.449   260.959
 H     43  42  41   2.184833   109.649    77.185
 H     43  42  41   2.188563   109.221   316.903
 H     43  42  41   2.187433   109.044   197.426
 H     42  41  34   2.180134   108.277    20.918
 H     42  41  34   2.176825   108.644   139.698
 H     41  34  33   2.187323   109.303    58.339
 H     41  34  33   2.188995   108.918   300.142
 H      1   2   3   2.003104   127.260   180.000
 H      4   3   2   2.003102   127.206   180.000
 H     26  19  18   2.003099   118.387    72.354
 H     29  28  27   2.003108   127.206   180.000

----------------------------
SLATER BASIS SET DIM= 120
----------------------------
  0 C     2 shells
 l=0 nsto= 1
    2       1.625000000000        1.000000000000
 l=1 nsto= 1
    2       1.625000000000        1.000000000000
  1 C     2 shells
 l=0 nsto= 1
    2       1.625000000000        1.000000000000
 l=1 nsto= 1
    2       1.625000000000        1.000000000000
  2 C     2 shells
 l=0 nsto= 1
    2       1.625000000000        1.000000000000
 l=1 nsto= 1
    2       1.625000000000        1.000000000000
  3 C     2 shells
 l=0 nsto= 1
    2       1.625000000000        1.000000000000
 l=1 nsto= 1
    2       1.625000000000        1.000000000000
  4 S     2 shells
 l=0 nsto= 1
    3       1.925000000000        1.000000000000
 l=1 nsto= 1
    3       1.925000000000        1.000000000000
  5 H     1 shells
 l=0 nsto= 1
    1       1.200000000000        1.000000000000
  6 C     2 shells
 l=0 nsto= 1
    2       1.625000000000        1.000000000000
 l=1 nsto= 1
    2       1.625000000000        1.000000000000
  7 C     2 shells
 l=0 nsto= 1
    2       1.625000000000        1.000000000000
 l=1 nsto= 1
    2       1.625000000000        1.000000000000
  8 C     2 shells
 l=0 nsto= 1
    2       1.625000000000        1.000000000000
 l=1 nsto= 1
    2       1.625000000000        1.000000000000
  9 H     1 shells
 l=0 nsto= 1
    1       1.200000000000        1.000000000000
 10 H     1 shells
 l=0 nsto= 1
    1       1.200000000000        1.000000000000
 11 H     1 shells
 l=0 nsto= 1
    1       1.200000000000        1.000000000000
 12 H     1 shells
 l=0 nsto= 1
    1       1.200000000000        1.000000000000
 13 H     1 shells
 l=0 nsto= 1
    1       1.200000000000        1.000000000000
 14 H     1 shells
 l=0 nsto= 1
    1       1.200000000000        1.000000000000
 15 C     2 shells
 l=0 nsto= 1
    2       1.625000000000        1.000000000000
 l=1 nsto= 1
    2       1.625000000000        1.000000000000
 16 C     2 shells
 l=0 nsto= 1
    2       1.625000000000        1.000000000000
 l=1 nsto= 1
    2       1.625000000000        1.000000000000
 17 C     2 shells
 l=0 nsto= 1
    2       1.625000000000        1.000000000000
 l=1 nsto= 1
    2       1.625000000000        1.000000000000
 18 H     1 shells
 l=0 nsto= 1
    1       1.200000000000        1.000000000000
 19 H     1 shells
 l=0 nsto= 1
    1       1.200000000000        1.000000000000
 20 H     1 shells
 l=0 nsto= 1
    1       1.200000000000        1.000000000000
 21 H     1 shells
 l=0 nsto= 1
    1       1.200000000000        1.000000000000
 22 H     1 shells
 l=0 nsto= 1
    1       1.200000000000        1.000000000000
 23 H     1 shells
 l=0 nsto= 1
    1       1.200000000000        1.000000000000
 24 H     1 shells
 l=0 nsto= 1
    1       1.200000000000        1.000000000000
 25 C     2 shells
 l=0 nsto= 1
    2       1.625000000000        1.000000000000
 l=1 nsto= 1
    2       1.625000000000        1.000000000000
 26 C     2 shells
 l=0 nsto= 1
    2       1.625000000000        1.000000000000
 l=1 nsto= 1
    2       1.625000000000        1.000000000000
 27 C     2 shells
 l=0 nsto= 1
    2       1.625000000000        1.000000000000
 l=1 nsto= 1
    2       1.625000000000        1.000000000000
 28 C     2 shells
 l=0 nsto= 1
    2       1.625000000000        1.000000000000
 l=1 nsto= 1
    2       1.625000000000        1.000000000000
 29 S     2 shells
 l=0 nsto= 1
    3       1.925000000000        1.000000000000
 l=1 nsto= 1
    3       1.925000000000        1.000000000000
 30 H     1 shells
 l=0 nsto= 1
    1       1.200000000000        1.000000000000
 31 C     2 shells
 l=0 nsto= 1
    2       1.625000000000        1.000000000000
 l=1 nsto= 1
    2       1.625000000000        1.000000000000
 32 C     2 shells
 l=0 nsto= 1
    2       1.625000000000        1.000000000000
 l=1 nsto= 1
    2       1.625000000000        1.000000000000
 33 C     2 shells
 l=0 nsto= 1
    2       1.625000000000        1.000000000000
 l=1 nsto= 1
    2       1.625000000000        1.000000000000
 34 H     1 shells
 l=0 nsto= 1
    1       1.200000000000        1.000000000000
 35 H     1 shells
 l=0 nsto= 1
    1       1.200000000000        1.000000000000
 36 H     1 shells
 l=0 nsto= 1
    1       1.200000000000        1.000000000000
 37 H     1 shells
 l=0 nsto= 1
    1       1.200000000000        1.000000000000
 38 H     1 shells
 l=0 nsto= 1
    1       1.200000000000        1.000000000000
 39 H     1 shells
 l=0 nsto= 1
    1       1.200000000000        1.000000000000
 40 C     2 shells
 l=0 nsto= 1
    2       1.625000000000        1.000000000000
 l=1 nsto= 1
    2       1.625000000000        1.000000000000
 41 C     2 shells
 l=0 nsto= 1
    2       1.625000000000        1.000000000000
 l=1 nsto= 1
    2       1.625000000000        1.000000000000
 42 C     2 shells
 l=0 nsto= 1
    2       1.625000000000        1.000000000000
 l=1 nsto= 1
    2       1.625000000000        1.000000000000
 43 H     1 shells
 l=0 nsto= 1
    1       1.200000000000        1.000000000000
 44 H     1 shells
 l=0 nsto= 1
    1       1.200000000000        1.000000000000
 45 H     1 shells
 l=0 nsto= 1
    1       1.200000000000        1.000000000000
 46 H     1 shells
 l=0 nsto= 1
    1       1.200000000000        1.000000000000
 47 H     1 shells
 l=0 nsto= 1
    1       1.200000000000        1.000000000000
 48 H     1 shells
 l=0 nsto= 1
    1       1.200000000000        1.000000000000
 49 H     1 shells
 l=0 nsto= 1
    1       1.200000000000        1.000000000000
 50 H     1 shells
 l=0 nsto= 1
    1       1.200000000000        1.000000000000
 51 H     1 shells
 l=0 nsto= 1
    1       1.200000000000        1.000000000000
 52 H     1 shells
 l=0 nsto= 1
    1       1.200000000000        1.000000000000
 53 H     1 shells
 l=0 nsto= 1
    1       1.200000000000        1.000000000000
------------------------------------------------------------------------------
                           ORCA NDO INTEGRAL CALCULATION
------------------------------------------------------------------------------

--------------
NDO PARAMETERS
--------------

Gamma integral treatment              ... Mataga-Nishimoto
Nuclear repulsuion treatment          ... Direct (ZA*ZB/RAB)
Interaction factors:
s-s (sigma) =    1.0000
s-p (sigma) =    1.0000
s-d (sigma) =    1.0000
p-p (sigma) =    1.2670  p-p(pi) =    0.5850
p-d (sigma) =    1.0000  p-d(pi) =    1.0000
d-d (sigma) =    1.0000  d-d(pi) =    1.0000 d-d (delta) =    1.0000

fGamma parameter for Mataga-Nishimoto gamma integrals:    1.2000

--------------------------
Parameters for Element H :
--------------------------
 One-electron parameters (in eV)
  U(s)  =   -13.060000 Beta(s) =    12.000000 Neff(s) =     1.000000
 One-center electron repulsion parameters (in eV)
  G(s,s)=    12.850000
--------------------------
Parameters for Element C :
--------------------------
 One-electron parameters (in eV)
  U(s)  =   -50.870766 Beta(s) =    17.000000 Neff(s) =     2.000000
  U(p)  =   -41.599980 Beta(p) =    17.000000 Neff(p) =     2.000000 
 One-center electron repulsion parameters (in eV)
  G(s,s)=    11.110000
  G(s,p)=    11.110000 G(p,p)  =    11.110000
 Slater-Condon parameters (in eV)
 F2(p,p)=     4.5098 G1(s,p)=    6.8977
--------------------------
Parameters for Element S :
--------------------------
 One-electron parameters (in eV)
  U(s)  =   -69.509597 Beta(s) =    15.000000 Neff(s) =     2.000000
  U(p)  =   -60.725746 Beta(p) =    15.000000 Neff(p) =     4.000000 
 One-center electron repulsion parameters (in eV)
  G(s,s)=    10.090000
  G(s,p)=    10.090000 G(p,p)  =    10.090000
 Slater-Condon parameters (in eV)
 F2(p,p)=     4.5377 G1(s,p)=    3.0756

 Number of atoms                    ....   54
 Number of basis functions          ....  120

 Overlap integrals                  .... done
 One electron matrix                .... done
 Nuclear repulsion                  .... done
 Integral list                      .... done
 Electron-electron repulsion        .... done
-------------------------------------------------------------------------------
                                 ORCA SCF
-------------------------------------------------------------------------------

------------
SCF SETTINGS
------------
Hamiltonian:
 ZDO-Hamiltonian        Method          .... INDO


General Settings:
 Integral files         IntName         .... /Users/mattyjones/GoogleDrive/Boise/Code/MorphCT/tests/output_EZ/donor_polymer/chromophores/input_orca/pair/00010-00016
 Hartree-Fock type      HFTyp           .... RHF
 Total Charge           Charge          ....    0
 Multiplicity           Mult            ....    1
 Number of Electrons    NEL             ....  124
 Basis Dimension        Dim             ....  120
 Nuclear Repulsion      ENuc            ....    641.8805197612 Eh

Convergence Acceleration:
 DIIS                   CNVDIIS         .... on
   Start iteration      DIISMaxIt       ....    12
   Startup error        DIISStart       ....  0.200000
   # of expansion vecs  DIISMaxEq       ....     5
   Bias factor          DIISBfac        ....   1.050
   Max. coefficient     DIISMaxC        ....  10.000
 Newton-Raphson         CNVNR           .... off
 SOSCF                  CNVSOSCF        .... on
   Start iteration      SOSCFMaxIt      ....   150
   Startup grad/error   SOSCFStart      ....  0.003300
 Level Shifting         CNVShift        .... on
   Level shift para.    LevelShift      ....    0.2500
   Turn off err/grad.   ShiftErr        ....    0.0010
 Zerner damping         CNVZerner       .... off
 Static damping         CNVDamp         .... on
   Fraction old density DampFac         ....    0.7000
   Max. Damping (<1)    DampMax         ....    0.9800
   Min. Damping (>=0)   DampMin         ....    0.0000
   Turn off err/grad.   DampErr         ....    0.1000
 Fernandez-Rico         CNVRico         .... off

SCF Procedure:
 Maximum # iterations   MaxIter         ....   125
 SCF integral mode      SCFMode         .... Conventional
 Integral Buffer length BufferLength    .... 1048576
 Integral index format  IndFormat       ....     0
 Integral value format  ValFormat       ....     0
 Integral Storage       Thresh          ....  1.000e-08 Eh

Convergence Tolerance:
 Convergence Check Mode ConvCheckMode   .... Total+1el-Energy
 Energy Change          TolE            ....  1.000e-06 Eh
 1-El. energy change                    ....  1.000e-03 Eh
 Orbital Gradient       TolG            ....  5.000e-05
 Orbital Rotation angle TolX            ....  5.000e-05
 DIIS Error             TolErr          ....  1.000e-06


Diagonalization of the overlap matrix:
Smallest eigenvalue                        ... 1.697e-01
Time for diagonalization                   ...    0.003 sec
Threshold for overlap eigenvalues          ... 1.000e-08
Number of eigenvalues below threshold      ... 0
Time for construction of square roots      ...    0.001 sec
Total time needed                          ...    0.004 sec

-------------------------------
INITIAL GUESS: EXTENDED HUECKEL
-------------------------------
EHT matrix was read from disk
EHT matrix was diagonalized
Initial density was built
                      ------------------
                      INITIAL GUESS DONE
                      ------------------

 InCore treatment chosen:
   Memory dedicated               ...    1024 MB
   Memory needed                  ...      0 MB
   Number of tiny    integrals    ...       0
   Number of small   integrals    ...       0
   Number of regular integrals    ...    7392

--------------
SCF ITERATIONS
--------------
ITER       Energy         Delta-E        Max-DP      RMS-DP      [F,P]     Damp
  0    -22.1189757273   0.000000000000 0.04173736  0.00143915  0.0994003 0.7000
  1    -22.1606242112  -0.041648483859 0.03941658  0.00135621  0.0711458 0.7000
                               ***Turning on DIIS***
  2    -22.1914453376  -0.030821126419 0.10003500  0.00348317  0.0466768 0.0000
  3    -22.2724083583  -0.080963020705 0.01817538  0.00071626  0.0192171 0.0000
  4    -22.2571443715   0.015263986760 0.01140239  0.00049536  0.0065264 0.0000
  5    -22.2742269361  -0.017082564552 0.00777587  0.00033516  0.0037994 0.0000
  6    -22.2766771315  -0.002450195476 0.00586248  0.00023802  0.0021211 0.0000
                      *** Initiating the SOSCF procedure ***
                           *** Shutting down DIIS ***
                      *** Re-Reading the Fockian *** 
                      *** Removing any level shift *** 
ITER      Energy       Delta-E        Grad      Rot      Max-DP    RMS-DP
  7    -22.27247645   0.0042006774  0.003025  0.003025  0.003490  0.000134
  8    -22.27054198   0.0019344701  0.000805  0.002211  0.001738  0.000062
  9    -22.27055648  -0.0000144967  0.000357  0.002166  0.001946  0.000065
 10    -22.27056177  -0.0000052898  0.000033  0.000081  0.000111  0.000004
                 **** Energy Check signals convergence ****
              ***Rediagonalizing the Fockian in SOSCF/NRSCF***

               *****************************************************
               *                     SUCCESS                       *
               *           SCF CONVERGED AFTER  11 CYCLES          *
               *****************************************************


----------------
TOTAL SCF ENERGY
----------------

Total Energy       :          -22.27056182 Eh            -606.01280 eV

Components:
Nuclear Repulsion  :          641.88051976 Eh           17466.45692 eV
Electronic Energy  :         -664.15108158 Eh          -18072.46972 eV

One Electron Energy:        -1237.82040421 Eh          -33682.80560 eV
Two Electron Energy:          573.66932263 Eh           15610.33588 eV


---------------
SCF CONVERGENCE
---------------

  Last Energy change         ...   -4.7843e-08  Tolerance :   1.0000e-06
  Last MAX-Density change    ...    5.4793e-05  Tolerance :   1.0000e-05
  Last RMS-Density change    ...    1.3404e-06  Tolerance :   1.0000e-06
  Last Orbital Gradient      ...    1.2382e-05  Tolerance :   5.0000e-05
  Last Orbital Rotation      ...    2.5136e-05  Tolerance :   5.0000e-05

             **** THE GBW FILE WAS UPDATED (/Users/mattyjones/GoogleDrive/Boise/Code/MorphCT/tests/output_EZ/donor_polymer/chromophores/input_orca/pair/00010-00016.gbw) ****
             **** DENSITY FILE WAS UPDATED (/Users/mattyjones/GoogleDrive/Boise/Code/MorphCT/tests/output_EZ/donor_polymer/chromophores/input_orca/pair/00010-00016.scfp.tmp) ****
             **** ENERGY FILE WAS UPDATED (/Users/mattyjones/GoogleDrive/Boise/Code/MorphCT/tests/output_EZ/donor_polymer/chromophores/input_orca/pair/00010-00016.en.tmp) ****
----------------
ORBITAL ENERGIES
----------------

  NO   OCC          E(Eh)            E(eV) 
   0   2.0000      -1.557482       -42.3813 
   1   2.0000      -1.556568       -42.3564 
   2   2.0000      -1.413144       -38.4536 
   3   2.0000      -1.403744       -38.1978 
   4   2.0000      -1.292603       -35.1735 
   5   2.0000      -1.291755       -35.1504 
   6   2.0000      -1.193931       -32.4885 
   7   2.0000      -1.173038       -31.9200 
   8   2.0000      -1.114844       -30.3364 
   9   2.0000      -1.108161       -30.1546 
  10   2.0000      -1.052920       -28.6514 
  11   2.0000      -1.031491       -28.0683 
  12   2.0000      -0.982598       -26.7379 
  13   2.0000      -0.957892       -26.0656 
  14   2.0000      -0.887022       -24.1371 
  15   2.0000      -0.885228       -24.0883 
  16   2.0000      -0.870196       -23.6792 
  17   2.0000      -0.866710       -23.5844 
  18   2.0000      -0.834460       -22.7068 
  19   2.0000      -0.827409       -22.5149 
  20   2.0000      -0.784106       -21.3366 
  21   2.0000      -0.768320       -20.9071 
  22   2.0000      -0.734942       -19.9988 
  23   2.0000      -0.728082       -19.8121 
  24   2.0000      -0.704356       -19.1665 
  25   2.0000      -0.690282       -18.7835 
  26   2.0000      -0.666182       -18.1277 
  27   2.0000      -0.664746       -18.0887 
  28   2.0000      -0.655415       -17.8348 
  29   2.0000      -0.639172       -17.3928 
  30   2.0000      -0.632908       -17.2223 
  31   2.0000      -0.615115       -16.7381 
  32   2.0000      -0.580011       -15.7829 
  33   2.0000      -0.579152       -15.7595 
  34   2.0000      -0.575692       -15.6654 
  35   2.0000      -0.573933       -15.6175 
  36   2.0000      -0.572817       -15.5871 
  37   2.0000      -0.565335       -15.3835 
  38   2.0000      -0.562220       -15.2988 
  39   2.0000      -0.552033       -15.0216 
  40   2.0000      -0.539634       -14.6842 
  41   2.0000      -0.530908       -14.4467 
  42   2.0000      -0.525602       -14.3024 
  43   2.0000      -0.511865       -13.9286 
  44   2.0000      -0.506594       -13.7851 
  45   2.0000      -0.498996       -13.5784 
  46   2.0000      -0.496294       -13.5048 
  47   2.0000      -0.494256       -13.4494 
  48   2.0000      -0.490550       -13.3485 
  49   2.0000      -0.485999       -13.2247 
  50   2.0000      -0.485627       -13.2146 
  51   2.0000      -0.475868       -12.9490 
  52   2.0000      -0.468773       -12.7560 
  53   2.0000      -0.466044       -12.6817 
  54   2.0000      -0.462176       -12.5764 
  55   2.0000      -0.453826       -12.3492 
  56   2.0000      -0.440483       -11.9862 
  57   2.0000      -0.437483       -11.9045 
  58   2.0000      -0.357277        -9.7220 
  59   2.0000      -0.356663        -9.7053 
  60   2.0000      -0.305134        -8.3031 
  61   2.0000      -0.304814        -8.2944 
  62   0.0000       0.007333         0.1995 
  63   0.0000       0.007509         0.2043 
  64   0.0000       0.066529         1.8103 
  65   0.0000       0.069545         1.8924 
  66   0.0000       0.074524         2.0279 
  67   0.0000       0.077340         2.1045 
  68   0.0000       0.087339         2.3766 
  69   0.0000       0.088981         2.4213 
  70   0.0000       0.105182         2.8622 
  71   0.0000       0.105669         2.8754 
  72   0.0000       0.107989         2.9385 
  73   0.0000       0.108783         2.9601 
  74   0.0000       0.122901         3.3443 
  75   0.0000       0.122930         3.3451 
  76   0.0000       0.139975         3.8089 
  77   0.0000       0.142933         3.8894 
  78   0.0000       0.155411         4.2290 
  79   0.0000       0.155723         4.2374 
  80   0.0000       0.164383         4.4731 
  81   0.0000       0.166751         4.5375 
  82   0.0000       0.168516         4.5856 
  83   0.0000       0.173224         4.7137 
  84   0.0000       0.203974         5.5504 
  85   0.0000       0.204946         5.5769 
  86   0.0000       0.229903         6.2560 
  87   0.0000       0.232883         6.3371 
  88   0.0000       0.233613         6.3569 
  89   0.0000       0.235207         6.4003 
  90   0.0000       0.238854         6.4995 
  91   0.0000       0.238909         6.5011 
  92   0.0000       0.239212         6.5093 
  93   0.0000       0.239467         6.5162 
  94   0.0000       0.240889         6.5549 
  95   0.0000       0.240962         6.5569 
  96   0.0000       0.241910         6.5827 
  97   0.0000       0.243120         6.6156 
  98   0.0000       0.244012         6.6399 
  99   0.0000       0.244397         6.6504 
 100   0.0000       0.244896         6.6640 
 101   0.0000       0.256231         6.9724 
 102   0.0000       0.257623         7.0103 
 103   0.0000       0.263325         7.1654 
 104   0.0000       0.266591         7.2543 
 105   0.0000       0.267144         7.2693 
 106   0.0000       0.286386         7.7929 
 107   0.0000       0.287237         7.8161 
 108   0.0000       0.299208         8.1419 
 109   0.0000       0.300992         8.1904 
 110   0.0000       0.309788         8.4298 
 111   0.0000       0.310270         8.4429 
 112   0.0000       0.339309         9.2331 
 113   0.0000       0.341523         9.2933 
 114   0.0000       0.349479         9.5098 
 115   0.0000       0.358201         9.7471 
 116   0.0000       0.413148        11.2423 
 117   0.0000       0.419873        11.4253 
 118   0.0000       0.428484        11.6596 
 119   0.0000       0.432082        11.7575 
-------
TIMINGS
-------

Total SCF time: 0 days 0 hours 0 min 0 sec 

Total time                  ....       0.135 sec
Sum of individual times     ....       0.108 sec  ( 80.1%)

Fock matrix formation       ....       0.054 sec  ( 39.9%)
Diagonalization             ....       0.026 sec  ( 19.5%)
Density matrix formation    ....       0.005 sec  (  3.9%)
Population analysis         ....       0.000 sec  (  0.0%)
Initial guess               ....       0.003 sec  (  2.2%)
Orbital Transformation      ....       0.000 sec  (  0.0%)
Orbital Orthonormalization  ....       0.000 sec  (  0.0%)
DIIS solution               ....       0.012 sec  (  8.8%)
SOSCF solution              ....       0.008 sec  (  5.8%)

-------------------------   --------------------
FINAL SINGLE POINT ENERGY       -22.270561818504
-------------------------   --------------------


                            ***************************************
                            *     ORCA property calculations      *
                            ***************************************

                                    ---------------------
                                    Active property flags
                                    ---------------------
   (+) Dipole Moment


------------------------------------------------------------------------------
                       ORCA ELECTRIC PROPERTIES CALCULATION
------------------------------------------------------------------------------

Dipole Moment Calculation                       ... on
Quadrupole Moment Calculation                   ... off
Polarizability Calculation                      ... off
GBWName                                         ... /Users/mattyjones/GoogleDrive/Boise/Code/MorphCT/tests/output_EZ/donor_polymer/chromophores/input_orca/pair/00010-00016.gbw
Electron density file                           ... /Users/mattyjones/GoogleDrive/Boise/Code/MorphCT/tests/output_EZ/donor_polymer/chromophores/input_orca/pair/00010-00016.scfp.tmp

-------------
DIPOLE MOMENT
-------------
                                X             Y             Z
Electronic contribution:     19.16387      12.35439     -70.06340
Nuclear contribution   :     -9.88188      -6.36577      38.13743
                        -----------------------------------------
Total Dipole Moment    :      9.28199       5.98862     -31.92597
                        -----------------------------------------
Magnitude (a.u.)       :     33.78293
Magnitude (Debye)      :     85.86939


Timings for individual modules:

Sum of individual times         ...        0.233 sec (=   0.004 min)
STO integral calculation        ...        0.061 sec (=   0.001 min)  26.2 %
SCF iterations                  ...        0.172 sec (=   0.003 min)  73.8 %
                             ****ORCA TERMINATED NORMALLY****
TOTAL RUN TIME: 0 days 0 hours 0 minutes 0 seconds 576 msec

