
                                 *****************
                                 * O   R   C   A *
                                 *****************

           --- An Ab Initio, DFT and Semiempirical electronic structure package ---

                  #######################################################
                  #                        -***-                        #
                  #  Department of molecular theory and spectroscopy    #
                  #              Directorship: Frank Neese              #
                  # Max Planck Institute for Chemical Energy Conversion #
                  #                  D-45470 Muelheim/Ruhr              #
                  #                       Germany                       #
                  #                                                     #
                  #                  All rights reserved                #
                  #                        -***-                        #
                  #######################################################


                         Program Version 4.0.1.2 - RELEASE -


 With contributions from (in alphabetic order):
   Daniel Aravena         : Magnetic Properties
   Michael Atanasov       : Ab Initio Ligand Field Theory
   Ute Becker             : Parallelization
   Martin Brehm           : Molecular dynamics
   Dmytro Bykov           : SCF Hessian
   Vijay G. Chilkuri      : MRCI spin determinant printing
   Dipayan Datta          : RHF DLPNO-CCSD density
   Achintya Kumar Dutta   : EOM-CC, STEOM-CC
   Dmitry Ganyushin       : Spin-Orbit,Spin-Spin,Magnetic field MRCI
   Yang Guo               : DLPNO-NEVPT2, CIM, IAO-localization
   Andreas Hansen         : Spin unrestricted coupled pair/coupled cluster methods
   Lee Huntington         : MR-EOM, pCC
   Robert Izsak           : Overlap fitted RIJCOSX, COSX-SCS-MP3, EOM
   Christian Kollmar      : KDIIS, OOCD, Brueckner-CCSD(T), CCSD density
   Simone Kossmann        : Meta GGA functionals, TD-DFT gradient, OOMP2, MP2 Hessian
   Martin Krupicka        : AUTO-CI
   Dagmar Lenk            : GEPOL surface
   Dimitrios Liakos       : Extrapolation schemes; parallel MDCI
   Dimitrios Manganas     : ROCIS; embedding schemes
   Dimitrios Pantazis     : SARC Basis sets
   Taras Petrenko         : DFT Hessian,TD-DFT gradient, ASA, ECA, R-Raman, ABS, FL, XAS/XES, NRVS
   Peter Pinski           : DLPNO-MP2
   Christoph Reimann      : Effective Core Potentials
   Marius Retegan         : Local ZFS, SOC
   Christoph Riplinger    : Optimizer, TS searches, QM/MM, DLPNO-CCSD(T), (RO)-DLPNO pert. Triples
   Tobias Risthaus        : Range-separated hybrids, TD-DFT gradient, RPA, STAB
   Michael Roemelt        : Restricted open shell CIS
   Masaaki Saitow         : Open-shell DLPNO
   Barbara Sandhoefer     : DKH picture change effects
   Kantharuban Sivalingam : CASSCF convergence, NEVPT2, FIC-MRCI
   Georgi Stoychev        : AutoAux
   Boris Wezisla          : Elementary symmetry handling
   Frank Wennmohs         : Technical directorship


 We gratefully acknowledge several colleagues who have allowed us to
 interface, adapt or use parts of their codes:
   Stefan Grimme, W. Hujo, H. Kruse,             : VdW corrections, initial TS optimization,
                  C. Bannwarth                     DFT functionals, gCP, sTDA/sTD-DF
   Ed Valeev                                     : LibInt (2-el integral package), F12 methods
   Garnet Chan, S. Sharma, J. Yang, R. Olivares  : DMRG
   Ulf Ekstrom                                   : XCFun DFT Library
   Mihaly Kallay                                 : mrcc  (arbitrary order and MRCC methods)
   Andreas Klamt, Michael Diedenhofen            : otool_cosmo (COSMO solvation model)
   Jiri Pittner, Ondrej Demel                    : Mk-CCSD
   Frank Weinhold                                : gennbo (NPA and NBO analysis)
   Christopher J. Cramer and Donald G. Truhlar   : smd solvation model


 Your calculation uses the libint2 library for the computation of 2-el integrals
 For citations please refer to: http://libint.valeyev.net

 This ORCA versions uses:
   CBLAS   interface :  Fast vector & matrix operations
   LAPACKE interface :  Fast linear algebra routines
   SCALAPACK package :  Parallel linear algebra routines


leaving
Your calculation utilizes the basis: def2-SVP
   F. Weigend and R. Ahlrichs, Phys. Chem. Chem. Phys. 7, 3297 (2005).

================================================================================
                                        WARNINGS
                       Please study these warnings very carefully!
================================================================================

Warning: TCutStore was < 0. Adjusted to Thresh (uncritical)

WARNING: Direct SCF is incompatible with Method<>HF and Method<>DFT
  ===> : conventional SCF is chosen

WARNING: The NDO methods need Guess=HUECKEL or Guess=HCORE or Guess=MOREAD
  ===> : Guess is set to Hueckel

WARNING: The NDO methods need %rel::SOCType==1
  ===> : %rel::SOCType is set to 1

WARNING: The NDO methods cannot have frozencore=1
  ===> : %method FrozenCore=0 end

INFO   : the flag for use of LIBINT has been found!

================================================================================
                                       INPUT FILE
================================================================================
NAME = /home/mattyjones/Software/morphct/tests/output_EZ/donor_polymer/chromophores/input_orca/pair/00012-00022.inp
|  1> # ================================================================
|  2> # Orca input file made by Matty Jones
|  3> # ================================================================
|  4> ! ZINDO/S 
|  5> ! NOPOP
|  6> ! NOMOPRINT
|  7> * xyz 0   1
|  8>  C  25.76160  -4.40759  5.35111
|  9>  C  24.87233  -5.43506  5.66956
| 10>  C  25.26222  -6.21426  6.80317
| 11>  C  26.46544  -5.79999  7.38279
| 12>  S  26.97638  -4.50957  6.47495
| 13>  H  23.91379  -5.65106  5.08614
| 14>  C  24.29780  -7.43529  7.26410
| 15>  C  24.64425  -8.81527  8.21960
| 16>  C  25.31141  -10.29918  7.74118
| 17>  H  26.00972  -10.08992  6.84370
| 18>  H  25.95358  -10.68691  8.62404
| 19>  H  23.54742  -9.14338  8.50453
| 20>  H  25.10654  -8.50627  9.20974
| 21>  H  23.85954  -7.91412  6.28579
| 22>  H  23.39679  -6.94981  7.83324
| 23>  C  24.22058  -11.43770  7.32819
| 24>  C  23.52764  -12.30736  8.60732
| 25>  C  22.08577  -11.63799  9.16608
| 26>  H  22.32022  -10.73347  9.84786
| 27>  H  21.50196  -12.43574  9.76815
| 28>  H  21.44815  -11.29197  8.26455
| 29>  H  23.31009  -13.37748  8.24119
| 30>  H  24.27536  -12.34032  9.48167
| 31>  H  23.36100  -10.94649  6.73132
| 32>  H  24.74077  -12.21766  6.64672
| 33>  C  -26.94019  5.61596  -9.26677
| 34>  C  -26.06161  6.55340  -8.72163
| 35>  C  -26.69063  7.52209  -7.87890
| 36>  C  -28.07288  7.34870  -7.75798
| 37>  S  -28.43887  6.02460  -8.68705
| 38>  H  -24.93885  6.55542  -8.91525
| 39>  C  -25.90057  8.72295  -7.15345
| 40>  C  -24.88584  9.65202  -8.12436
| 41>  C  -24.22886  10.95099  -7.26631
| 42>  H  -25.09635  11.43985  -6.67183
| 43>  H  -23.86164  11.71866  -8.05345
| 44>  H  -24.04032  8.98906  -8.52583
| 45>  H  -25.50580  10.07016  -9.00072
| 46>  H  -26.55766  9.46912  -6.56690
| 47>  H  -25.19413  8.23297  -6.34469
| 48>  C  -23.01269  10.61731  -6.24355
| 49>  C  -21.48448  10.51273  -6.94348
| 50>  C  -21.09101  8.92996  -7.35621
| 51>  H  -20.06939  8.92154  -7.89909
| 52>  H  -21.90281  8.49124  -8.05190
| 53>  H  -21.02327  8.29453  -6.39065
| 54>  H  -21.46243  11.15855  -7.89654
| 55>  H  -20.70534  10.90390  -6.19102
| 56>  H  -23.22615  9.61467  -5.70595
| 57>  H  -22.96034  11.45307  -5.44112
| 58>  H  25.67800  -3.70930  4.55802
| 59>  H  26.94960  -6.22231  8.22590
| 60>  H  -26.70000  4.81222  -9.91477
| 61>  H  -28.74586  7.93981  -7.19117
| 62> *
| 63> 
| 64>                          ****END OF INPUT****
================================================================================

                       ****************************
                       * Single Point Calculation *
                       ****************************

---------------------------------
CARTESIAN COORDINATES (ANGSTROEM)
---------------------------------
  C     25.761600   -4.407590    5.351110
  C     24.872330   -5.435060    5.669560
  C     25.262220   -6.214260    6.803170
  C     26.465440   -5.799990    7.382790
  S     26.976380   -4.509570    6.474950
  H     23.913790   -5.651060    5.086140
  C     24.297800   -7.435290    7.264100
  C     24.644250   -8.815270    8.219600
  C     25.311410  -10.299180    7.741180
  H     26.009720  -10.089920    6.843700
  H     25.953580  -10.686910    8.624040
  H     23.547420   -9.143380    8.504530
  H     25.106540   -8.506270    9.209740
  H     23.859540   -7.914120    6.285790
  H     23.396790   -6.949810    7.833240
  C     24.220580  -11.437700    7.328190
  C     23.527640  -12.307360    8.607320
  C     22.085770  -11.637990    9.166080
  H     22.320220  -10.733470    9.847860
  H     21.501960  -12.435740    9.768150
  H     21.448150  -11.291970    8.264550
  H     23.310090  -13.377480    8.241190
  H     24.275360  -12.340320    9.481670
  H     23.361000  -10.946490    6.731320
  H     24.740770  -12.217660    6.646720
  C    -26.940190    5.615960   -9.266770
  C    -26.061610    6.553400   -8.721630
  C    -26.690630    7.522090   -7.878900
  C    -28.072880    7.348700   -7.757980
  S    -28.438870    6.024600   -8.687050
  H    -24.938850    6.555420   -8.915250
  C    -25.900570    8.722950   -7.153450
  C    -24.885840    9.652020   -8.124360
  C    -24.228860   10.950990   -7.266310
  H    -25.096350   11.439850   -6.671830
  H    -23.861640   11.718660   -8.053450
  H    -24.040320    8.989060   -8.525830
  H    -25.505800   10.070160   -9.000720
  H    -26.557660    9.469120   -6.566900
  H    -25.194130    8.232970   -6.344690
  C    -23.012690   10.617310   -6.243550
  C    -21.484480   10.512730   -6.943480
  C    -21.091010    8.929960   -7.356210
  H    -20.069390    8.921540   -7.899090
  H    -21.902810    8.491240   -8.051900
  H    -21.023270    8.294530   -6.390650
  H    -21.462430   11.158550   -7.896540
  H    -20.705340   10.903900   -6.191020
  H    -23.226150    9.614670   -5.705950
  H    -22.960340   11.453070   -5.441120
  H     25.678000   -3.709300    4.558020
  H     26.949600   -6.222310    8.225900
  H    -26.700000    4.812220   -9.914770
  H    -28.745860    7.939810   -7.191170

----------------------------
CARTESIAN COORDINATES (A.U.)
----------------------------
  NO LB      ZA    FRAG     MASS         X           Y           Z
   0 C     4.0000    0    12.011   48.682369   -8.329138   10.112132
   1 C     4.0000    0    12.011   47.001892  -10.270775   10.713916
   2 C     4.0000    0    12.011   47.738677  -11.743250   12.856128
   3 C     4.0000    0    12.011   50.012434  -10.960393   13.951451
   4 S     6.0000    0    32.060   50.977970   -8.521852   12.235882
   5 H     1.0000    0     1.008   45.190514  -10.678956    9.611412
   6 C     4.0000    0    12.011   45.916188  -14.050662   13.727160
   7 C     4.0000    0    12.011   46.570883  -16.658446   15.532793
   8 C     4.0000    0    12.011   47.831633  -19.462630   14.628710
   9 H     1.0000    0     1.008   49.151248  -19.067186   12.932719
  10 H     1.0000    0     1.008   49.045158  -20.195333   16.297074
  11 H     1.0000    0     1.008   44.498175  -17.278484   16.071233
  12 H     1.0000    0     1.008   47.444485  -16.074521   17.403886
  13 H     1.0000    0     1.008   45.087996  -14.955519   11.878422
  14 H     1.0000    0     1.008   44.213526  -13.133238   14.802678
  15 C     4.0000    0    12.011   45.770263  -21.614121   13.848272
  16 C     4.0000    0    12.011   44.460796  -23.257540   16.265478
  17 C     4.0000    0    12.011   41.736057  -21.992614   17.321381
  18 H     1.0000    0     1.008   42.179103  -20.283319   18.609758
  19 H     1.0000    0     1.008   40.632816  -23.500143   18.459128
  20 H     1.0000    0     1.008   40.531130  -21.338731   15.617736
  21 H     1.0000    0     1.008   44.049686  -25.279774   15.573592
  22 H     1.0000    0     1.008   45.873782  -23.319825   17.917760
  23 H     1.0000    0     1.008   44.145892  -20.685868   12.720351
  24 H     1.0000    0     1.008   46.753280  -23.088031   12.560480
  25 C     4.0000    0    12.011  -50.909581   10.612626  -17.511657
  26 C     4.0000    0    12.011  -49.249306   12.384131  -16.481492
  27 C     4.0000    0    12.011  -50.437981   14.214690  -14.888963
  28 C     4.0000    0    12.011  -53.050055   13.887030  -14.660458
  29 S     6.0000    0    32.060  -53.741676   11.384844  -16.416145
  30 H     1.0000    0     1.008  -47.127597   12.387948  -16.847381
  31 C     4.0000    0    12.011  -48.944984   16.483987  -13.518061
  32 C     4.0000    0    12.011  -47.027422   18.239674  -15.352815
  33 C     4.0000    0    12.011  -45.785910   20.694372  -13.731336
  34 H     1.0000    0     1.008  -47.425228   21.618184  -12.607932
  35 H     1.0000    0     1.008  -45.091965   22.145058  -15.218815
  36 H     1.0000    0     1.008  -45.429621   16.986862  -16.111484
  37 H     1.0000    0     1.008  -48.198977   19.029845  -17.008896
  38 H     1.0000    0     1.008  -50.186704   17.894044  -12.409643
  39 H     1.0000    0     1.008  -47.610006   15.558059  -11.989727
  40 C     4.0000    0    12.011  -43.487682   20.063808  -11.798600
  41 C     4.0000    0    12.011  -40.599783   19.866181  -13.121276
  42 C     4.0000    0    12.011  -39.856233   16.875179  -13.901222
  43 H     1.0000    0     1.008  -37.925651   16.859267  -14.927117
  44 H     1.0000    0     1.008  -41.390312   16.046118  -15.215886
  45 H     1.0000    0     1.008  -39.728223   15.674390  -12.076578
  46 H     1.0000    0     1.008  -40.558115   21.086604  -14.922298
  47 H     1.0000    0     1.008  -39.127422   20.605385  -11.699332
  48 H     1.0000    0     1.008  -43.891063   18.169093  -10.782683
  49 H     1.0000    0     1.008  -43.388755   21.643166  -10.282227
  50 H     1.0000    0     1.008   48.524388   -7.009561    8.613410
  51 H     1.0000    0     1.008   50.927363  -11.758462   15.544698
  52 H     1.0000    0     1.008  -50.455688    9.093778  -18.736200
  53 H     1.0000    0     1.008  -54.321803   15.004066  -13.589342

--------------------------------
INTERNAL COORDINATES (ANGSTROEM)
--------------------------------
 C      0   0   0     0.000000000000     0.00000000     0.00000000
 C      1   0   0     1.395674079540     0.00000000     0.00000000
 C      2   1   0     1.429768682060   114.10205880     0.00000000
 C      3   2   1     1.398326623397   113.69310488     0.00000000
 S      1   2   3     1.658043037560   105.47908960     0.00000000
 H      2   1   3     1.142730864202   123.85706841   180.13043310
 C      3   2   1     1.622799020890   118.24199814   179.87831180
 C      7   3   2     1.713870663994   130.09493921   159.49110336
 C      8   7   3     1.695870587663   128.81385338   275.70332155
 H      9   8   7     1.156242601749   107.34989146    30.12286677
 H      9   8   7     1.158515706152   107.21322610   146.53459303
 H      8   7   3     1.179778507136    99.82523643   162.90623254
 H      8   7   3     1.135592472545   110.44441746    53.73639857
 H      7   3   2     1.174070037349   106.97956740    36.37574190
 H      7   3   2     1.171080778640   106.46067405   282.61327067
 C      9   8   7     1.629938225639   114.79660410   268.13634721
 C     16   9   8     1.694888762161   116.15491097   277.73280783
 C     17  16   9     1.685009801574   113.34569842    92.53809255
 H     18  17  16     1.156696676445   109.43012360   281.39734756
 H     18  17  16     1.157465966454   109.28708000   161.44060092
 H     18  17  16     1.157171312166   109.38688270    41.59803257
 H     17  16   9     1.151753443147   108.30367917   212.65131029
 H     17  16   9     1.150938522468   108.80925891   331.88159710
 H     16   9   8     1.156035828770   109.36854948    39.82325769
 H     16   9   8     1.159023985343   108.58219282   157.96562178
 C      6   2   1    54.028502172362   152.34282805   286.25206008
 C     26   6   2     1.395662634593    56.20576357    20.31379754
 C     27  26   6     1.429762333187   114.10128018   214.39902997
 C     28  27  26     1.398320707492   113.69386613     0.00000000
 S     26   6   2     1.658042119610   144.02650124   312.36131083
 H     27  26   6     1.139334368129   123.72188870    33.96923360
 C     28  27  26     1.610135784864   123.71023997   181.14546659
 C     32  28  27     1.683898531949   116.57689669    49.87416077
 C     33  32  28     1.689732400056   111.44768205   175.06462069
 H     34  33  32     1.159710942477   107.06888248   314.26927064
 H     34  33  32     1.159205390300   106.70502345   199.04093953
 H     33  32  28     1.146995288962   109.09476056   296.22262971
 H     33  32  28     1.152040932780   108.33533500    55.82733977
 H     32  28  27     1.154373353599   115.57611064   175.72753502
 H     32  28  27     1.180351901595   107.02482032   292.40651545
 C     34  33  32     1.623714823761   116.94259639    76.69931990
 C     41  34  33     1.684121368964   115.50817801    82.78181563
 C     42  41  34     1.682357146001   111.87666105   266.33575219
 H     43  42  41     1.156934317582   109.17719137   176.00617987
 H     43  42  41     1.155629289392   109.91086102    55.78888283
 H     43  42  41     1.157871368547   108.99023548   295.70963316
 H     42  41  34     1.151474289118   109.05886279    26.58057253
 H     42  41  34     1.151637599291   108.74003643   146.19006387
 H     41  34  33     1.157525766970   109.41612632   320.88780470
 H     41  34  33     1.159797053368   108.75498487   202.97509632
 H      1   2   3     1.059995109517   127.26031437   180.00020606
 H      4   3   2     1.059999792500   127.20618395   179.99997546
 H     26   6   2     1.059996803627    77.93598999   172.94019807
 H     29  28  27     1.059993721019   127.20626771   180.00019188

---------------------------
INTERNAL COORDINATES (A.U.)
---------------------------
 C      0   0   0     0.000000000000     0.00000000     0.00000000
 C      1   0   0     2.637441782543     0.00000000     0.00000000
 C      2   1   0     2.701871243951   114.10205880     0.00000000
 C      3   2   1     2.642454363991   113.69310488     0.00000000
 S      1   2   3     3.133247259243   105.47908960     0.00000000
 H      2   1   3     2.159448378121   123.85706841   180.13043310
 C      3   2   1     3.066645719877   118.24199814   179.87831180
 C      7   3   2     3.238746183911   130.09493921   159.49110336
 C      8   7   3     3.204730969255   128.81385338   275.70332155
 H      9   8   7     2.184981861679   107.34989146    30.12286677
 H      9   8   7     2.189277406473   107.21322610   146.53459303
 H      8   7   3     2.229458277173    99.82523643   162.90623254
 H      8   7   3     2.145958772852   110.44441746    53.73639857
 H      7   3   2     2.218670832632   106.97956740    36.37574190
 H      7   3   2     2.213021952329   106.46067405   282.61327067
 C      9   8   7     3.080136861668   114.79660410   268.13634721
 C     16   9   8     3.202875587945   116.15491097   277.73280783
 C     17  16   9     3.184207057948   113.34569842    92.53809255
 H     18  17  16     2.185839938499   109.43012360   281.39734756
 H     18  17  16     2.187293685933   109.28708000   161.44060092
 H     18  17  16     2.186736870024   109.38688270    41.59803257
 H     17  16   9     2.176498581348   108.30367917   212.65131029
 H     17  16   9     2.174958604444   108.80925891   331.88159710
 H     16   9   8     2.184591117376   109.36854948    39.82325769
 H     16   9   8     2.190237914944   108.58219282   157.96562178
 C      6   2   1   102.099072531733   152.34282805   286.25206008
 C     26   6   2     2.637420154728    56.20576357    20.31379754
 C     27  26   6     2.701859246319   114.10128018   214.39902997
 C     28  27  26     2.642443184550   113.69386613     0.00000000
 S     26   6   2     3.133245524569   144.02650124   312.36131083
 H     27  26   6     2.153029930728   123.72188870    33.96923360
 C     28  27  26     3.042715671820   123.71023997   181.14546659
 C     32  28  27     3.182107062696   116.57689669    49.87416077
 C     33  32  28     3.193131475720   111.44768205   175.06462069
 H     34  33  32     2.191536075793   107.06888248   314.26927064
 H     34  33  32     2.190580720632   106.70502345   199.04093953
 H     33  32  28     2.167506973035   109.09476056   296.22262971
 H     33  32  28     2.177041858021   108.33533500    55.82733977
 H     32  28  27     2.181449494599   115.57611064   175.72753502
 H     32  28  27     2.230541835669   107.02482032   292.40651545
 C     34  33  32     3.068376336496   116.94259639    76.69931990
 C     41  34  33     3.182528163626   115.50817801    82.78181563
 C     42  41  34     3.179194265387   111.87666105   266.33575219
 H     43  42  41     2.186289015166   109.17719137   176.00617987
 H     43  42  41     2.183822869288   109.91086102    55.78888283
 H     43  42  41     2.188059784862   108.99023548   295.70963316
 H     42  41  34     2.175971056685   109.05886279    26.58057253
 H     42  41  34     2.176279668186   108.74003643   146.19006387
 H     41  34  33     2.187406692531   109.41612632   320.88780470
 H     41  34  33     2.191698801793   108.75498487   202.97509632
 H      1   2   3     2.003100460283   127.26031437   180.00020606
 H      4   3   2     2.003109309838   127.20618395   179.99997546
 H     26   6   2     2.003103661687    77.93598999   172.94019807
 H     29  28  27     2.003097836402   127.20626771   180.00019188

----------------------------
SLATER BASIS SET DIM= 120
----------------------------
  0 C     2 shells
 l=0 nsto= 1
    2       1.625000000000        1.000000000000
 l=1 nsto= 1
    2       1.625000000000        1.000000000000
  1 C     2 shells
 l=0 nsto= 1
    2       1.625000000000        1.000000000000
 l=1 nsto= 1
    2       1.625000000000        1.000000000000
  2 C     2 shells
 l=0 nsto= 1
    2       1.625000000000        1.000000000000
 l=1 nsto= 1
    2       1.625000000000        1.000000000000
  3 C     2 shells
 l=0 nsto= 1
    2       1.625000000000        1.000000000000
 l=1 nsto= 1
    2       1.625000000000        1.000000000000
  4 S     2 shells
 l=0 nsto= 1
    3       1.925000000000        1.000000000000
 l=1 nsto= 1
    3       1.925000000000        1.000000000000
  5 H     1 shells
 l=0 nsto= 1
    1       1.200000000000        1.000000000000
  6 C     2 shells
 l=0 nsto= 1
    2       1.625000000000        1.000000000000
 l=1 nsto= 1
    2       1.625000000000        1.000000000000
  7 C     2 shells
 l=0 nsto= 1
    2       1.625000000000        1.000000000000
 l=1 nsto= 1
    2       1.625000000000        1.000000000000
  8 C     2 shells
 l=0 nsto= 1
    2       1.625000000000        1.000000000000
 l=1 nsto= 1
    2       1.625000000000        1.000000000000
  9 H     1 shells
 l=0 nsto= 1
    1       1.200000000000        1.000000000000
 10 H     1 shells
 l=0 nsto= 1
    1       1.200000000000        1.000000000000
 11 H     1 shells
 l=0 nsto= 1
    1       1.200000000000        1.000000000000
 12 H     1 shells
 l=0 nsto= 1
    1       1.200000000000        1.000000000000
 13 H     1 shells
 l=0 nsto= 1
    1       1.200000000000        1.000000000000
 14 H     1 shells
 l=0 nsto= 1
    1       1.200000000000        1.000000000000
 15 C     2 shells
 l=0 nsto= 1
    2       1.625000000000        1.000000000000
 l=1 nsto= 1
    2       1.625000000000        1.000000000000
 16 C     2 shells
 l=0 nsto= 1
    2       1.625000000000        1.000000000000
 l=1 nsto= 1
    2       1.625000000000        1.000000000000
 17 C     2 shells
 l=0 nsto= 1
    2       1.625000000000        1.000000000000
 l=1 nsto= 1
    2       1.625000000000        1.000000000000
 18 H     1 shells
 l=0 nsto= 1
    1       1.200000000000        1.000000000000
 19 H     1 shells
 l=0 nsto= 1
    1       1.200000000000        1.000000000000
 20 H     1 shells
 l=0 nsto= 1
    1       1.200000000000        1.000000000000
 21 H     1 shells
 l=0 nsto= 1
    1       1.200000000000        1.000000000000
 22 H     1 shells
 l=0 nsto= 1
    1       1.200000000000        1.000000000000
 23 H     1 shells
 l=0 nsto= 1
    1       1.200000000000        1.000000000000
 24 H     1 shells
 l=0 nsto= 1
    1       1.200000000000        1.000000000000
 25 C     2 shells
 l=0 nsto= 1
    2       1.625000000000        1.000000000000
 l=1 nsto= 1
    2       1.625000000000        1.000000000000
 26 C     2 shells
 l=0 nsto= 1
    2       1.625000000000        1.000000000000
 l=1 nsto= 1
    2       1.625000000000        1.000000000000
 27 C     2 shells
 l=0 nsto= 1
    2       1.625000000000        1.000000000000
 l=1 nsto= 1
    2       1.625000000000        1.000000000000
 28 C     2 shells
 l=0 nsto= 1
    2       1.625000000000        1.000000000000
 l=1 nsto= 1
    2       1.625000000000        1.000000000000
 29 S     2 shells
 l=0 nsto= 1
    3       1.925000000000        1.000000000000
 l=1 nsto= 1
    3       1.925000000000        1.000000000000
 30 H     1 shells
 l=0 nsto= 1
    1       1.200000000000        1.000000000000
 31 C     2 shells
 l=0 nsto= 1
    2       1.625000000000        1.000000000000
 l=1 nsto= 1
    2       1.625000000000        1.000000000000
 32 C     2 shells
 l=0 nsto= 1
    2       1.625000000000        1.000000000000
 l=1 nsto= 1
    2       1.625000000000        1.000000000000
 33 C     2 shells
 l=0 nsto= 1
    2       1.625000000000        1.000000000000
 l=1 nsto= 1
    2       1.625000000000        1.000000000000
 34 H     1 shells
 l=0 nsto= 1
    1       1.200000000000        1.000000000000
 35 H     1 shells
 l=0 nsto= 1
    1       1.200000000000        1.000000000000
 36 H     1 shells
 l=0 nsto= 1
    1       1.200000000000        1.000000000000
 37 H     1 shells
 l=0 nsto= 1
    1       1.200000000000        1.000000000000
 38 H     1 shells
 l=0 nsto= 1
    1       1.200000000000        1.000000000000
 39 H     1 shells
 l=0 nsto= 1
    1       1.200000000000        1.000000000000
 40 C     2 shells
 l=0 nsto= 1
    2       1.625000000000        1.000000000000
 l=1 nsto= 1
    2       1.625000000000        1.000000000000
 41 C     2 shells
 l=0 nsto= 1
    2       1.625000000000        1.000000000000
 l=1 nsto= 1
    2       1.625000000000        1.000000000000
 42 C     2 shells
 l=0 nsto= 1
    2       1.625000000000        1.000000000000
 l=1 nsto= 1
    2       1.625000000000        1.000000000000
 43 H     1 shells
 l=0 nsto= 1
    1       1.200000000000        1.000000000000
 44 H     1 shells
 l=0 nsto= 1
    1       1.200000000000        1.000000000000
 45 H     1 shells
 l=0 nsto= 1
    1       1.200000000000        1.000000000000
 46 H     1 shells
 l=0 nsto= 1
    1       1.200000000000        1.000000000000
 47 H     1 shells
 l=0 nsto= 1
    1       1.200000000000        1.000000000000
 48 H     1 shells
 l=0 nsto= 1
    1       1.200000000000        1.000000000000
 49 H     1 shells
 l=0 nsto= 1
    1       1.200000000000        1.000000000000
 50 H     1 shells
 l=0 nsto= 1
    1       1.200000000000        1.000000000000
 51 H     1 shells
 l=0 nsto= 1
    1       1.200000000000        1.000000000000
 52 H     1 shells
 l=0 nsto= 1
    1       1.200000000000        1.000000000000
 53 H     1 shells
 l=0 nsto= 1
    1       1.200000000000        1.000000000000
------------------------------------------------------------------------------
                           ORCA NDO INTEGRAL CALCULATION
------------------------------------------------------------------------------

--------------
NDO PARAMETERS
--------------

Gamma integral treatment              ... Mataga-Nishimoto
Nuclear repulsuion treatment          ... Direct (ZA*ZB/RAB)
Interaction factors:
s-s (sigma) =    1.0000
s-p (sigma) =    1.0000
s-d (sigma) =    1.0000
p-p (sigma) =    1.2670  p-p(pi) =    0.5850
p-d (sigma) =    1.0000  p-d(pi) =    1.0000
d-d (sigma) =    1.0000  d-d(pi) =    1.0000 d-d (delta) =    1.0000

fGamma parameter for Mataga-Nishimoto gamma integrals:    1.2000

--------------------------
Parameters for Element H :
--------------------------
 One-electron parameters (in eV)
  U(s)  =   -13.060000 Beta(s) =    12.000000 Neff(s) =     1.000000
 One-center electron repulsion parameters (in eV)
  G(s,s)=    12.850000
--------------------------
Parameters for Element C :
--------------------------
 One-electron parameters (in eV)
  U(s)  =   -50.870766 Beta(s) =    17.000000 Neff(s) =     2.000000
  U(p)  =   -41.599980 Beta(p) =    17.000000 Neff(p) =     2.000000 
 One-center electron repulsion parameters (in eV)
  G(s,s)=    11.110000
  G(s,p)=    11.110000 G(p,p)  =    11.110000
 Slater-Condon parameters (in eV)
 F2(p,p)=     4.5098 G1(s,p)=    6.8977
--------------------------
Parameters for Element S :
--------------------------
 One-electron parameters (in eV)
  U(s)  =   -69.509597 Beta(s) =    15.000000 Neff(s) =     2.000000
  U(p)  =   -60.725746 Beta(p) =    15.000000 Neff(p) =     4.000000 
 One-center electron repulsion parameters (in eV)
  G(s,s)=    10.090000
  G(s,p)=    10.090000 G(p,p)  =    10.090000
 Slater-Condon parameters (in eV)
 F2(p,p)=     4.5377 G1(s,p)=    3.0756

 Number of atoms                    ....   54
 Number of basis functions          ....  120

 Overlap integrals                  .... done
 One electron matrix                .... done
 Nuclear repulsion                  .... done
 Integral list                      .... done
 Electron-electron repulsion        .... done
-------------------------------------------------------------------------------
                                 ORCA SCF
-------------------------------------------------------------------------------

------------
SCF SETTINGS
------------
Hamiltonian:
 ZDO-Hamiltonian        Method          .... INDO


General Settings:
 Integral files         IntName         .... /home/mattyjones/Software/morphct/tests/output_EZ/donor_polymer/chromophores/input_orca/pair/00012-00022
 Hartree-Fock type      HFTyp           .... RHF
 Total Charge           Charge          ....    0
 Multiplicity           Mult            ....    1
 Number of Electrons    NEL             ....  124
 Basis Dimension        Dim             ....  120
 Nuclear Repulsion      ENuc            ....    629.5578408971 Eh

Convergence Acceleration:
 DIIS                   CNVDIIS         .... on
   Start iteration      DIISMaxIt       ....    12
   Startup error        DIISStart       ....  0.200000
   # of expansion vecs  DIISMaxEq       ....     5
   Bias factor          DIISBfac        ....   1.050
   Max. coefficient     DIISMaxC        ....  10.000
 Newton-Raphson         CNVNR           .... off
 SOSCF                  CNVSOSCF        .... on
   Start iteration      SOSCFMaxIt      ....   150
   Startup grad/error   SOSCFStart      ....  0.003300
 Level Shifting         CNVShift        .... on
   Level shift para.    LevelShift      ....    0.2500
   Turn off err/grad.   ShiftErr        ....    0.0010
 Zerner damping         CNVZerner       .... off
 Static damping         CNVDamp         .... on
   Fraction old density DampFac         ....    0.7000
   Max. Damping (<1)    DampMax         ....    0.9800
   Min. Damping (>=0)   DampMin         ....    0.0000
   Turn off err/grad.   DampErr         ....    0.1000
 Fernandez-Rico         CNVRico         .... off

SCF Procedure:
 Maximum # iterations   MaxIter         ....   125
 SCF integral mode      SCFMode         .... Conventional
 Integral Buffer length BufferLength    .... 1048576
 Integral index format  IndFormat       ....     0
 Integral value format  ValFormat       ....     0
 Integral Storage       Thresh          ....  1.000e-08 Eh

Convergence Tolerance:
 Convergence Check Mode ConvCheckMode   .... Total+1el-Energy
 Convergence forced     ConvForced      .... 0
 Energy Change          TolE            ....  1.000e-06 Eh
 1-El. energy change                    ....  1.000e-03 Eh
 Orbital Gradient       TolG            ....  5.000e-05
 Orbital Rotation angle TolX            ....  5.000e-05
 DIIS Error             TolErr          ....  1.000e-06


Diagonalization of the overlap matrix:
Smallest eigenvalue                        ... 1.698e-01
Time for diagonalization                   ...    0.003 sec
Threshold for overlap eigenvalues          ... 1.000e-08
Number of eigenvalues below threshold      ... 0
Time for construction of square roots      ...    0.000 sec
Total time needed                          ...    0.003 sec

-------------------------------
INITIAL GUESS: EXTENDED HUECKEL
-------------------------------
EHT matrix was read from disk
EHT matrix was diagonalized
Initial density was built
                      ------------------
                      INITIAL GUESS DONE
                      ------------------

 InCore treatment chosen:
   Memory dedicated               ...    1024 MB
   Memory needed                  ...      0 MB
   Number of tiny    integrals    ...       0
   Number of small   integrals    ...       0
   Number of regular integrals    ...    7392

--------------
SCF ITERATIONS
--------------
ITER       Energy         Delta-E        Max-DP      RMS-DP      [F,P]     Damp
  0    -18.8017330992   0.000000000000 0.04122873  0.00143751  0.0980278 0.7000
  1    -18.8432277342  -0.041494634929 0.03883750  0.00135311  0.0670006 0.7000
                               ***Turning on DIIS***
  2    -18.8739262953  -0.030698561133 0.09824202  0.00347053  0.0441711 0.0000
  3    -18.9550075869  -0.081081291588 0.01716263  0.00071103  0.0188955 0.0000
  4    -18.9395895296   0.015418057270 0.01076251  0.00048843  0.0065222 0.0000
  5    -18.9562774393  -0.016687909660 0.00745337  0.00033020  0.0037505 0.0000
  6    -18.9585746081  -0.002297168832 0.00568247  0.00023490  0.0020546 0.0000
                      *** Initiating the SOSCF procedure ***
                           *** Shutting down DIIS ***
                      *** Re-Reading the Fockian *** 
                      *** Removing any level shift *** 
ITER      Energy       Delta-E        Grad      Rot      Max-DP    RMS-DP
  7    -18.95450979   0.0040648159  0.002990  0.002990  0.003380  0.000132
  8    -18.95263142   0.0018783687  0.000797  0.002186  0.001683  0.000061
  9    -18.95264568  -0.0000142569  0.000352  0.002137  0.001879  0.000065
 10    -18.95265089  -0.0000052089  0.000027  0.000057  0.000110  0.000004
                 **** Energy Check signals convergence ****
              ***Rediagonalizing the Fockian in SOSCF/NRSCF***

               *****************************************************
               *                     SUCCESS                       *
               *           SCF CONVERGED AFTER  11 CYCLES          *
               *****************************************************


----------------
TOTAL SCF ENERGY
----------------

Total Energy       :          -18.95265093 Eh            -515.72785 eV

Components:
Nuclear Repulsion  :          629.55784090 Eh           17131.13978 eV
Electronic Energy  :         -648.51049183 Eh          -17646.86763 eV
One Electron Energy:        -1206.57393571 Eh          -32832.54597 eV
Two Electron Energy:          558.06344388 Eh           15185.67833 eV


---------------
SCF CONVERGENCE
---------------

  Last Energy change         ...   -4.3077e-08  Tolerance :   1.0000e-06
  Last MAX-Density change    ...    3.1220e-05  Tolerance :   1.0000e-05
  Last RMS-Density change    ...    1.1552e-06  Tolerance :   1.0000e-06
  Last Orbital Gradient      ...    7.1081e-06  Tolerance :   5.0000e-05
  Last Orbital Rotation      ...    2.0826e-05  Tolerance :   5.0000e-05

             **** THE GBW FILE WAS UPDATED (/home/mattyjones/Software/morphct/tests/output_EZ/donor_polymer/chromophores/input_orca/pair/00012-00022.gbw) ****
             **** DENSITY FILE WAS UPDATED (/home/mattyjones/Software/morphct/tests/output_EZ/donor_polymer/chromophores/input_orca/pair/00012-00022.scfp.tmp) ****
             **** ENERGY FILE WAS UPDATED (/home/mattyjones/Software/morphct/tests/output_EZ/donor_polymer/chromophores/input_orca/pair/00012-00022.en.tmp) ****
----------------
ORBITAL ENERGIES
----------------

  NO   OCC          E(Eh)            E(eV) 
   0   2.0000      -1.557685       -42.3868 
   1   2.0000      -1.555495       -42.3272 
   2   2.0000      -1.416128       -38.5348 
   3   2.0000      -1.405125       -38.2354 
   4   2.0000      -1.289227       -35.0817 
   5   2.0000      -1.273687       -34.6588 
   6   2.0000      -1.179807       -32.1042 
   7   2.0000      -1.175473       -31.9862 
   8   2.0000      -1.115525       -30.3550 
   9   2.0000      -1.111861       -30.2553 
  10   2.0000      -1.064159       -28.9572 
  11   2.0000      -1.041527       -28.3414 
  12   2.0000      -0.964288       -26.2396 
  13   2.0000      -0.950079       -25.8530 
  14   2.0000      -0.912115       -24.8199 
  15   2.0000      -0.890861       -24.2416 
  16   2.0000      -0.859185       -23.3796 
  17   2.0000      -0.852335       -23.1932 
  18   2.0000      -0.836584       -22.7646 
  19   2.0000      -0.831404       -22.6236 
  20   2.0000      -0.782839       -21.3021 
  21   2.0000      -0.775628       -21.1059 
  22   2.0000      -0.737151       -20.0589 
  23   2.0000      -0.713213       -19.4075 
  24   2.0000      -0.711229       -19.3535 
  25   2.0000      -0.697176       -18.9711 
  26   2.0000      -0.681952       -18.5568 
  27   2.0000      -0.658027       -17.9058 
  28   2.0000      -0.641186       -17.4476 
  29   2.0000      -0.635535       -17.2938 
  30   2.0000      -0.619500       -16.8574 
  31   2.0000      -0.605652       -16.4806 
  32   2.0000      -0.593802       -16.1582 
  33   2.0000      -0.581996       -15.8369 
  34   2.0000      -0.575979       -15.6732 
  35   2.0000      -0.573836       -15.6149 
  36   2.0000      -0.569110       -15.4863 
  37   2.0000      -0.560554       -15.2535 
  38   2.0000      -0.557903       -15.1813 
  39   2.0000      -0.553541       -15.0626 
  40   2.0000      -0.545930       -14.8555 
  41   2.0000      -0.536146       -14.5893 
  42   2.0000      -0.523215       -14.2374 
  43   2.0000      -0.515900       -14.0384 
  44   2.0000      -0.505895       -13.7661 
  45   2.0000      -0.505609       -13.7583 
  46   2.0000      -0.496981       -13.5235 
  47   2.0000      -0.496588       -13.5129 
  48   2.0000      -0.492903       -13.4126 
  49   2.0000      -0.491850       -13.3839 
  50   2.0000      -0.476757       -12.9732 
  51   2.0000      -0.474618       -12.9150 
  52   2.0000      -0.471192       -12.8218 
  53   2.0000      -0.469802       -12.7840 
  54   2.0000      -0.465190       -12.6585 
  55   2.0000      -0.451451       -12.2846 
  56   2.0000      -0.437356       -11.9011 
  57   2.0000      -0.434449       -11.8220 
  58   2.0000      -0.356886        -9.7114 
  59   2.0000      -0.356213        -9.6930 
  60   2.0000      -0.305730        -8.3193 
  61   2.0000      -0.304510        -8.2862 
  62   0.0000       0.007525         0.2048 
  63   0.0000       0.008078         0.2198 
  64   0.0000       0.061688         1.6786 
  65   0.0000       0.070853         1.9280 
  66   0.0000       0.073605         2.0029 
  67   0.0000       0.080394         2.1876 
  68   0.0000       0.086335         2.3493 
  69   0.0000       0.088193         2.3999 
  70   0.0000       0.102728         2.7954 
  71   0.0000       0.105132         2.8608 
  72   0.0000       0.106836         2.9072 
  73   0.0000       0.109295         2.9741 
  74   0.0000       0.122319         3.3285 
  75   0.0000       0.123360         3.3568 
  76   0.0000       0.141294         3.8448 
  77   0.0000       0.142588         3.8800 
  78   0.0000       0.157798         4.2939 
  79   0.0000       0.161270         4.3884 
  80   0.0000       0.164808         4.4847 
  81   0.0000       0.165735         4.5099 
  82   0.0000       0.168718         4.5910 
  83   0.0000       0.169417         4.6101 
  84   0.0000       0.202813         5.5188 
  85   0.0000       0.206769         5.6265 
  86   0.0000       0.224285         6.1031 
  87   0.0000       0.230878         6.2825 
  88   0.0000       0.232026         6.3137 
  89   0.0000       0.233526         6.3546 
  90   0.0000       0.234527         6.3818 
  91   0.0000       0.235688         6.4134 
  92   0.0000       0.236348         6.4314 
  93   0.0000       0.238191         6.4815 
  94   0.0000       0.240315         6.5393 
  95   0.0000       0.243178         6.6172 
  96   0.0000       0.244107         6.6425 
  97   0.0000       0.245239         6.6733 
  98   0.0000       0.245312         6.6753 
  99   0.0000       0.246289         6.7019 
 100   0.0000       0.251915         6.8549 
 101   0.0000       0.257052         6.9947 
 102   0.0000       0.260760         7.0956 
 103   0.0000       0.266460         7.2508 
 104   0.0000       0.266844         7.2612 
 105   0.0000       0.269531         7.3343 
 106   0.0000       0.282268         7.6809 
 107   0.0000       0.282657         7.6915 
 108   0.0000       0.302054         8.2193 
 109   0.0000       0.305023         8.3001 
 110   0.0000       0.310439         8.4475 
 111   0.0000       0.310502         8.4492 
 112   0.0000       0.337529         9.1846 
 113   0.0000       0.341882         9.3031 
 114   0.0000       0.352020         9.5789 
 115   0.0000       0.354082         9.6351 
 116   0.0000       0.411711        11.2032 
 117   0.0000       0.415909        11.3175 
 118   0.0000       0.430558        11.7161 
 119   0.0000       0.430972        11.7273 
-------
TIMINGS
-------

Total SCF time: 0 days 0 hours 0 min 0 sec 

Total time                  ....       0.116 sec
Sum of individual times     ....       0.096 sec  ( 82.8%)

Fock matrix formation       ....       0.042 sec  ( 36.5%)
Diagonalization             ....       0.025 sec  ( 21.3%)
Density matrix formation    ....       0.003 sec  (  2.6%)
Population analysis         ....       0.000 sec  (  0.0%)
Initial guess               ....       0.003 sec  (  2.7%)
Orbital Transformation      ....       0.000 sec  (  0.0%)
Orbital Orthonormalization  ....       0.000 sec  (  0.0%)
DIIS solution               ....       0.005 sec  (  4.1%)
SOSCF solution              ....       0.018 sec  ( 15.6%)

-------------------------   --------------------
FINAL SINGLE POINT ENERGY       -18.952650932266
-------------------------   --------------------


                            ***************************************
                            *     ORCA property calculations      *
                            ***************************************

                                    ---------------------
                                    Active property flags
                                    ---------------------
   (+) Dipole Moment


------------------------------------------------------------------------------
                       ORCA ELECTRIC PROPERTIES CALCULATION
------------------------------------------------------------------------------

Dipole Moment Calculation                       ... on
Quadrupole Moment Calculation                   ... off
Polarizability Calculation                      ... off
GBWName                                         ... /home/mattyjones/Software/morphct/tests/output_EZ/donor_polymer/chromophores/input_orca/pair/00012-00022.gbw
Electron density file                           ... /home/mattyjones/Software/morphct/tests/output_EZ/donor_polymer/chromophores/input_orca/pair/00012-00022.scfp.tmp
The origin for moment calculation is the CENTER OF MASS  = (-0.373548,  0.426980 -0.582052)

-------------
DIPOLE MOMENT
-------------
                                X             Y             Z
Electronic contribution:    -32.87778      41.03235     -59.11866
Nuclear contribution   :     21.61813     -23.68423      33.24789
                        -----------------------------------------
Total Dipole Moment    :    -11.25965      17.34812     -25.87077
                        -----------------------------------------
Magnitude (a.u.)       :     33.12150
Magnitude (Debye)      :     84.18816


Timings for individual modules:

Sum of individual times         ...        0.143 sec (=   0.002 min)
STO integral calculation        ...        0.019 sec (=   0.000 min)  12.9 %
SCF iterations                  ...        0.125 sec (=   0.002 min)  87.1 %
                             ****ORCA TERMINATED NORMALLY****
TOTAL RUN TIME: 0 days 0 hours 0 minutes 0 seconds 412 msec

