
                                 *****************
                                 * O   R   C   A *
                                 *****************

           --- An Ab Initio, DFT and Semiempirical electronic structure package ---

                  #######################################################
                  #                        -***-                        #
                  #  Department of molecular theory and spectroscopy    #
                  #              Directorship: Frank Neese              #
                  # Max Planck Institute for Chemical Energy Conversion #
                  #                  D-45470 Muelheim/Ruhr              #
                  #                       Germany                       #
                  #                                                     #
                  #                  All rights reserved                #
                  #                        -***-                        #
                  #######################################################


                         Program Version 3.0.3 - RELEASE   -


 With contributions from (in alphabetic order):
   Ute Becker             : Parallelization
   Dmytro Bykov           : SCF Hessian
   Dmitry Ganyushin       : Spin-Orbit,Spin-Spin,Magnetic field MRCI
   Andreas Hansen         : Spin unrestricted coupled pair/coupled cluster methods
   Dimitrios Liakos       : Extrapolation schemes; parallel MDCI
   Robert Izsak           : Overlap fitted RIJCOSX, COSX-SCS-MP3
   Christian Kollmar      : KDIIS, OOCD, Brueckner-CCSD(T), CCSD density
   Simone Kossmann        : Meta GGA functionals, TD-DFT gradient, OOMP2, MP2 Hessian
   Taras Petrenko         : DFT Hessian,TD-DFT gradient, ASA and ECA modules, normal mode analysis, Resonance Raman, ABS, FL, XAS/XES, NRVS
   Christoph Reimann      : Effective Core Potentials
   Michael Roemelt        : Restricted open shell CIS
   Christoph Riplinger    : Improved optimizer, TS searches, QM/MM, DLPNO-CCSD
   Barbara Sandhoefer     : DKH picture change effects
   Igor Schapiro          : Molecular dynamics
   Kantharuban Sivalingam : CASSCF convergence, NEVPT2
   Boris Wezisla          : Elementary symmetry handling
   Frank Wennmohs         : Technical directorship


 We gratefully acknowledge several colleagues who have allowed us to
 interface, adapt or use parts of their codes:
   Stefan Grimme, W. Hujo, H. Kruse, T. Risthaus : VdW corrections, initial TS optimization,
                                                   DFT functionals, gCP
   Ed Valeev                                     : LibInt (2-el integral package), F12 methods
   Garnet Chan, S. Sharma, R. Olivares           : DMRG
   Ulf Ekstrom                                   : XCFun DFT Library
   Mihaly Kallay                                 : mrcc  (arbitrary order and MRCC methods)
   Andreas Klamt, Michael Diedenhofen            : otool_cosmo (COSMO solvation model)
   Frank Weinhold                                : gennbo (NPA and NBO analysis)
   Christopher J. Cramer and Donald G. Truhlar   : smd solvation model


 Your calculation uses the libint2 library for the computation of 2-el integrals
 For citations please refer to: http://libint.valeyev.net

 This ORCA versions uses:
   CBLAS   interface :  Fast vector & matrix operations
   LAPACKE interface :  Fast linear algebra routines
   SCALAPACK package :  Parallel linear algebra routines


leaving
================================================================================
                                        WARNINGS
                       Please study these warnings very carefully!
================================================================================
Now building the actual basis set

WARNING: Direct SCF is incompatible with Method<>HF and Method<>DFT
  ===> : conventional SCF is chosen

WARNING: The NDO methods need Guess=HUECKEL or Guess=HCORE or Guess=MOREAD
  ===> : Guess is set to Hueckel

WARNING: The NDO methods need %rel::SOCType==1
  ===> : %rel::SOCType is set to 1

WARNING: The NDO methods cannot have frozencore=1
  ===> : %method FrozenCore=0 end


INFO   : the flag for use of LIBINT has been found!

================================================================================
                                       INPUT FILE
================================================================================
NAME = /Users/mattyjones/GoogleDrive/Boise/Code/MorphCT/tests/output_EZ/donor_polymer/chromophores/input_orca/pair/00026-00029.inp
|  1> # ================================================================
|  2> # Orca input file made by Matty Jones
|  3> # ================================================================
|  4> ! ZINDO/S 
|  5> ! NOPOP
|  6> ! NOMOPRINT
|  7> * xyz 0   1
|  8>  C  4.61159  -5.94517  -4.79303
|  9>  C  5.19303  -5.28335  -3.71052
| 10>  C  4.35082  -4.29737  -3.10820
| 11>  C  3.09804  -4.18003  -3.71818
| 12>  S  3.09832  -5.28682  -4.95327
| 13>  H  6.25061  -5.49412  -3.33383
| 14>  C  4.76760  -3.36337  -1.85229
| 15>  C  6.08219  -2.31702  -2.08636
| 16>  C  6.49734  -1.27146  -0.81515
| 17>  H  5.51840  -0.79374  -0.42518
| 18>  H  6.96684  -1.89582  0.03300
| 19>  H  7.00641  -2.95877  -2.32785
| 20>  H  5.81678  -1.65825  -2.99514
| 21>  H  3.87582  -2.74079  -1.44971
| 22>  H  5.09925  -4.06603  -0.97590
| 23>  C  7.51409  -0.08956  -1.29995
| 24>  C  9.17750  -0.37504  -1.24637
| 25>  C  9.62701  -1.83008  -0.54021
| 26>  H  10.77075  -1.97045  -0.65321
| 27>  H  9.07750  -2.70354  -1.06131
| 28>  H  9.35081  -1.80781  0.58375
| 29>  H  9.56969  -0.37349  -2.33203
| 30>  H  9.67540  0.48435  -0.66090
| 31>  H  7.26062  0.19276  -2.39528
| 32>  H  7.32259  0.84446  -0.63904
| 33>  C  -2.25596  2.64600  0.81822
| 34>  C  -3.58747  2.91980  1.13448
| 35>  C  -3.80840  3.22952  2.51272
| 36>  C  -2.64549  3.20014  3.28866
| 37>  S  -1.42232  2.79815  2.24335
| 38>  H  -4.43201  2.93332  0.36597
| 39>  C  -5.18340  3.60824  3.31595
| 40>  C  -6.72882  2.87490  3.65312
| 41>  C  -8.33291  2.68874  3.06526
| 42>  H  -9.02275  2.89611  3.97750
| 43>  H  -8.48552  3.54794  2.30912
| 44>  H  -6.40179  1.76980  3.79413
| 45>  H  -6.94260  3.32755  4.70636
| 46>  H  -5.55530  4.60285  2.81031
| 47>  H  -4.85053  3.90483  4.40069
| 48>  C  -8.79175  1.26846  2.41619
| 49>  C  -9.11548  1.17909  0.76535
| 50>  C  -9.18515  2.65540  -0.02942
| 51>  H  -8.14215  3.15457  -0.01112
| 52>  H  -9.95919  3.33827  0.49547
| 53>  H  -9.51288  2.47956  -1.12590
| 54>  H  -8.28723  0.54545  0.27294
| 55>  H  -10.13194  0.65009  0.62803
| 56>  H  -7.97037  0.47895  2.63430
| 57>  H  -9.76213  0.92408  2.95479
| 58>  H  5.04587  -6.70787  -5.38741
| 59>  H  2.31262  -3.52154  -3.44778
| 60>  H  -1.86094  2.39393  -0.13258
| 61>  H  -2.56301  3.39417  4.32748
| 62> *
| 63> 
| 64>                          ****END OF INPUT****
================================================================================

                       ****************************
                       * Single Point Calculation *
                       ****************************

---------------------------------
CARTESIAN COORDINATES (ANGSTROEM)
---------------------------------
  C      4.611590   -5.945170   -4.793030
  C      5.193030   -5.283350   -3.710520
  C      4.350820   -4.297370   -3.108200
  C      3.098040   -4.180030   -3.718180
  S      3.098320   -5.286820   -4.953270
  H      6.250610   -5.494120   -3.333830
  C      4.767600   -3.363370   -1.852290
  C      6.082190   -2.317020   -2.086360
  C      6.497340   -1.271460   -0.815150
  H      5.518400   -0.793740   -0.425180
  H      6.966840   -1.895820    0.033000
  H      7.006410   -2.958770   -2.327850
  H      5.816780   -1.658250   -2.995140
  H      3.875820   -2.740790   -1.449710
  H      5.099250   -4.066030   -0.975900
  C      7.514090   -0.089560   -1.299950
  C      9.177500   -0.375040   -1.246370
  C      9.627010   -1.830080   -0.540210
  H     10.770750   -1.970450   -0.653210
  H      9.077500   -2.703540   -1.061310
  H      9.350810   -1.807810    0.583750
  H      9.569690   -0.373490   -2.332030
  H      9.675400    0.484350   -0.660900
  H      7.260620    0.192760   -2.395280
  H      7.322590    0.844460   -0.639040
  C     -2.255960    2.646000    0.818220
  C     -3.587470    2.919800    1.134480
  C     -3.808400    3.229520    2.512720
  C     -2.645490    3.200140    3.288660
  S     -1.422320    2.798150    2.243350
  H     -4.432010    2.933320    0.365970
  C     -5.183400    3.608240    3.315950
  C     -6.728820    2.874900    3.653120
  C     -8.332910    2.688740    3.065260
  H     -9.022750    2.896110    3.977500
  H     -8.485520    3.547940    2.309120
  H     -6.401790    1.769800    3.794130
  H     -6.942600    3.327550    4.706360
  H     -5.555300    4.602850    2.810310
  H     -4.850530    3.904830    4.400690
  C     -8.791750    1.268460    2.416190
  C     -9.115480    1.179090    0.765350
  C     -9.185150    2.655400   -0.029420
  H     -8.142150    3.154570   -0.011120
  H     -9.959190    3.338270    0.495470
  H     -9.512880    2.479560   -1.125900
  H     -8.287230    0.545450    0.272940
  H    -10.131940    0.650090    0.628030
  H     -7.970370    0.478950    2.634300
  H     -9.762130    0.924080    2.954790
  H      5.045870   -6.707870   -5.387410
  H      2.312620   -3.521540   -3.447780
  H     -1.860940    2.393930   -0.132580
  H     -2.563010    3.394170    4.327480

----------------------------
CARTESIAN COORDINATES (A.U.)
----------------------------
  NO LB      ZA    FRAG    MASS        X           Y           Z
   0 C     4.0000    0    12.011          8.714642141929904        -11.234743119604607         -9.057514051668576
   1 C     4.0000    0    12.011          9.813404505237077         -9.984084569652845         -7.011866614437483
   2 C     4.0000    0    12.011          8.221858257987259         -8.120852396129170         -5.873646769454035
   3 C     4.0000    0    12.011          5.854447151933395         -7.899111931574851         -7.026341916623319
   4 S     6.0000    0    32.060          5.854976275250893         -9.990641919337550         -9.360323767368119
   5 H     1.0000    0     1.008         11.811941069949516        -10.382382146899426         -6.300025677050686
   6 C     4.0000    0    12.011          9.009458316082959         -6.355848187046720         -3.500320820600995
   7 C     4.0000    0    12.011         11.493673394474497         -4.378533246818218         -3.942649016767942
   8 C     4.0000    0    12.011         12.278193198971906         -2.402711190235514         -1.540410258065908
   9 H     1.0000    0     1.008         10.428264697431034         -1.499951221538654         -0.803473757620638
  10 H     1.0000    0     1.008         13.165419618847933         -3.582580599210587          0.062360962419401
  11 H     1.0000    0     1.008         13.240196081967197         -5.591264993262182         -4.398998980848586
  12 H     1.0000    0     1.008         10.992121181270457         -3.133638361574916         -5.659994332752898
  13 H     1.0000    0     1.008          7.324238344374666         -5.179342490590027         -2.739554873606978
  14 H     1.0000    0     1.008          9.636185988397942         -7.683683152307826         -1.844183734093749
  15 C     4.0000    0    12.011         14.199572245636338         -0.169243872553987         -2.456549487790931
  16 C     4.0000    0    12.011         17.342961594062288         -0.708722889265826         -2.355297961535431
  17 C     4.0000    0    12.011         18.192412388521230         -3.458350003166604         -1.020848954805599
  18 H     1.0000    0     1.008         20.353767756932321         -3.723610860585131         -1.234388007938701
  19 H     1.0000    0     1.008         17.153988980670164         -5.108950192101460         -2.005585243191963
  20 H     1.0000    0     1.008         17.670470030332179         -3.416265802164178          1.103127630676531
  21 H     1.0000    0     1.008         18.084093286524862         -0.705793813758248         -4.406898036088377
  22 H     1.0000    0     1.008         18.283856236141677          0.915288852964758         -1.248920001908555
  23 H     1.0000    0     1.008         13.720583362471318          0.364263609574660         -4.526423214058896
  24 H     1.0000    0     1.008         13.837689690990418          1.595798131051140         -1.207610588621037
  25 C     4.0000    0    12.011         -4.263146569080987          5.000215350355631          1.546211717297046
  26 C     4.0000    0    12.011         -6.779335813658473          5.517622365823271          2.143856504410981
  27 C     4.0000    0    12.011         -7.196833008425695          6.102908344021361          4.748352651226607
  28 C     4.0000    0    12.011         -4.999251590027332          6.047388190206755          6.214666747581464
  29 S     6.0000    0    32.060         -2.687795274798875          5.287737181631750          4.239317122532240
  30 H     1.0000    0     1.008         -8.375285122800326          5.543171463153886          0.691583073231161
  31 C     4.0000    0    12.011         -9.795206442567416          6.818585425460017          6.266237373776175
  32 C     4.0000    0    12.011        -12.715627004451996          5.432773662410206          6.903396334350402
  33 C     4.0000    0    12.011        -15.746917798613737          5.080982245319427          5.792501929263455
  34 H     1.0000    0     1.008        -17.050526474837973          5.472854753710677          7.516385697671779
  35 H     1.0000    0     1.008        -16.035308903911456          6.704634939584566          4.363604410360240
  36 H     1.0000    0     1.008        -12.097629866875730          3.344437311813831          7.169866616494638
  37 H     1.0000    0     1.008        -13.119612657361682          6.288158196929661          8.893731487641622
  38 H     1.0000    0     1.008        -10.497995591772730          8.698125935519434          5.310716251420232
  39 H     1.0000    0     1.008         -9.166173304369050          7.379059299519721          8.316098900285914
  40 C     4.0000    0    12.011        -16.613999737902166          2.397042011833751          4.565937387519189
  41 C     4.0000    0    12.011        -17.225760779236492          2.228157187245209          1.446301896596630
  42 C     4.0000    0    12.011        -17.357417998986787          5.017978776014492         -0.055595742859963
  43 H     1.0000    0     1.008        -15.386433641306921          5.961273370283963         -0.021013754609204
  44 H     1.0000    0     1.008        -18.820141615687188          6.308416061085297          0.936302607573963
  45 H     1.0000    0     1.008        -17.976737944856794          4.685689332625779         -2.127642654181937
  46 H     1.0000    0     1.008        -15.660595108816214          1.030751119747347          0.515781850992466
  47 H     1.0000    0     1.008        -19.146591805322085          1.228492062400866          1.186804703886564
  48 H     1.0000    0     1.008        -15.061816486021927          0.905084331841583          4.978105554588754
  49 H     1.0000    0     1.008        -18.447752183736672          1.746258125833950          5.583743883249175
  50 H     1.0000    0     1.008          9.535312407369226        -12.676037241946347        -10.180729471148691
  51 H     1.0000    0     1.008          4.370218451828965         -6.654746169649044         -6.515359970011013
  52 H     1.0000    0     1.008         -3.516666951659414          4.523872083778103         -0.250539890835280
  53 H     1.0000    0     1.008         -4.843386978501507          6.414051751971495          8.177752050021539

--------------------------------
INTERNAL COORDINATES (ANGSTROEM)
--------------------------------
 C      0   0   0   0.000000     0.000     0.000
 C      1   0   0   1.395674     0.000     0.000
 C      2   1   0   1.429777   114.101     0.000
 C      3   2   1   1.398321   113.693     0.000
 S      1   2   3   1.658037   105.480     0.000
 H      2   1   3   1.142276   123.641   180.507
 C      3   2   1   1.619683   124.942   180.884
 C      7   3   2   1.696403   116.622    61.836
 C      8   7   3   1.697504   117.782   177.118
 H      9   8   7   1.156986   107.446   314.088
 H      9   8   7   1.153089   108.475    71.400
 H      8   7   3   1.150801   107.899   299.225
 H      8   7   3   1.153387   106.421    56.965
 H      7   3   2   1.159719   112.388   187.619
 H      7   3   2   1.171231   107.886   304.440
 C      9   8   7   1.632697   112.075   194.183
 C     16   9   8   1.688580   118.793   271.444
 C     17  16   9   1.678649   115.067   354.151
 H     18  17  16   1.157849   109.181   174.295
 H     18  17  16   1.156044   109.755    54.254
 H     18  17  16   1.157613   109.140   293.878
 H     17  16   9   1.154328   107.735   114.421
 H     17  16   9   1.152923   108.392   232.541
 H     16   9   8   1.159181   108.706    33.539
 H     16   9   8   1.160115   108.111   150.333
 C     14   7   3   8.471112   172.274   265.100
 C     26  14   7   1.395674   151.162   139.837
 C     27  26  14   1.429784   114.101   109.914
 C     28  27  26   1.398322   113.694     0.000
 S     26  14   7   1.658041    85.672   254.512
 H     27  26  14   1.141945   123.737   287.982
 C     28  27  26   1.636836   130.765   179.957
 C     32  28  27   1.743501   137.917    60.191
 C     33  32  28   1.718528   143.782   271.100
 H     34  33  32   1.162353   105.437   227.052
 H     34  33  32   1.154670   105.472   340.775
 H     33  32  28   1.161068   100.030    37.083
 H     33  32  28   1.166151   100.014   147.714
 H     32  28  27   1.176108   104.497   298.139
 H     32  28  27   1.172787   105.900   186.582
 C     34  33  32   1.627581   119.610   105.953
 C     41  34  33   1.684655   119.423   248.495
 C     42  41  34   1.678095   115.177   349.924
 H     43  42  41   1.156440   109.560    65.462
 H     43  42  41   1.157998   109.382   304.879
 H     43  42  41   1.157841   109.066   185.454
 H     42  41  34   1.153241   108.032   110.881
 H     42  41  34   1.154075   108.069   228.989
 H     41  34  33   1.159984   108.622    10.798
 H     41  34  33   1.162035   108.011   127.231
 H      1   2   3   1.059999   127.260   180.000
 H      4   3   2   1.060005   127.207   180.000
 H     26  14   7   1.060000    48.615    45.668
 H     29  28  27   1.059999   127.206   180.000

---------------------------
INTERNAL COORDINATES (A.U.)
---------------------------
 C      0   0   0   0.000000     0.000     0.000
 C      1   0   0   2.637442     0.000     0.000
 C      2   1   0   2.701888   114.101     0.000
 C      3   2   1   2.642444   113.693     0.000
 S      1   2   3   3.133236   105.480     0.000
 H      2   1   3   2.158589   123.641   180.507
 C      3   2   1   3.060756   124.942   180.884
 C      7   3   2   3.205738   116.622    61.836
 C      8   7   3   3.207818   117.782   177.118
 H      9   8   7   2.186387   107.446   314.088
 H      9   8   7   2.179022   108.475    71.400
 H      8   7   3   2.174699   107.899   299.225
 H      8   7   3   2.179585   106.421    56.965
 H      7   3   2   2.191551   112.388   187.619
 H      7   3   2   2.213306   107.886   304.440
 C      9   8   7   3.085350   112.075   194.183
 C     16   9   8   3.190954   118.793   271.444
 C     17  16   9   3.172187   115.067   354.151
 H     18  17  16   2.188017   109.181   174.295
 H     18  17  16   2.184607   109.755    54.254
 H     18  17  16   2.187572   109.140   293.878
 H     17  16   9   2.181364   107.735   114.421
 H     17  16   9   2.178708   108.392   232.541
 H     16   9   8   2.190534   108.706    33.539
 H     16   9   8   2.192300   108.111   150.333
 C     14   7   3  16.008082   172.274   265.100
 C     26  14   7   2.637441   151.162   139.837
 C     27  26  14   2.701900   114.101   109.914
 C     28  27  26   2.642447   113.694     0.000
 S     26  14   7   3.133244    85.672   254.512
 H     27  26  14   2.157963   123.737   287.982
 C     28  27  26   3.093172   130.765   179.957
 C     32  28  27   3.294739   137.917    60.191
 C     33  32  28   3.247548   143.782   271.100
 H     34  33  32   2.196528   105.437   227.052
 H     34  33  32   2.182010   105.472   340.775
 H     33  32  28   2.194100   100.030    37.083
 H     33  32  28   2.203706   100.014   147.714
 H     32  28  27   2.222522   104.497   298.139
 H     32  28  27   2.216246   105.900   186.582
 C     34  33  32   3.075683   119.610   105.953
 C     41  34  33   3.183536   119.423   248.495
 C     42  41  34   3.171141   115.177   349.924
 H     43  42  41   2.185356   109.560    65.462
 H     43  42  41   2.188299   109.382   304.879
 H     43  42  41   2.188002   109.066   185.454
 H     42  41  34   2.179310   108.032   110.881
 H     42  41  34   2.180885   108.069   228.989
 H     41  34  33   2.192052   108.622    10.798
 H     41  34  33   2.195928   108.011   127.231
 H      1   2   3   2.003108   127.260   180.000
 H      4   3   2   2.003118   127.207   180.000
 H     26  14   7   2.003110    48.615    45.668
 H     29  28  27   2.003108   127.206   180.000

----------------------------
SLATER BASIS SET DIM= 120
----------------------------
  0 C     2 shells
 l=0 nsto= 1
    2       1.625000000000        1.000000000000
 l=1 nsto= 1
    2       1.625000000000        1.000000000000
  1 C     2 shells
 l=0 nsto= 1
    2       1.625000000000        1.000000000000
 l=1 nsto= 1
    2       1.625000000000        1.000000000000
  2 C     2 shells
 l=0 nsto= 1
    2       1.625000000000        1.000000000000
 l=1 nsto= 1
    2       1.625000000000        1.000000000000
  3 C     2 shells
 l=0 nsto= 1
    2       1.625000000000        1.000000000000
 l=1 nsto= 1
    2       1.625000000000        1.000000000000
  4 S     2 shells
 l=0 nsto= 1
    3       1.925000000000        1.000000000000
 l=1 nsto= 1
    3       1.925000000000        1.000000000000
  5 H     1 shells
 l=0 nsto= 1
    1       1.200000000000        1.000000000000
  6 C     2 shells
 l=0 nsto= 1
    2       1.625000000000        1.000000000000
 l=1 nsto= 1
    2       1.625000000000        1.000000000000
  7 C     2 shells
 l=0 nsto= 1
    2       1.625000000000        1.000000000000
 l=1 nsto= 1
    2       1.625000000000        1.000000000000
  8 C     2 shells
 l=0 nsto= 1
    2       1.625000000000        1.000000000000
 l=1 nsto= 1
    2       1.625000000000        1.000000000000
  9 H     1 shells
 l=0 nsto= 1
    1       1.200000000000        1.000000000000
 10 H     1 shells
 l=0 nsto= 1
    1       1.200000000000        1.000000000000
 11 H     1 shells
 l=0 nsto= 1
    1       1.200000000000        1.000000000000
 12 H     1 shells
 l=0 nsto= 1
    1       1.200000000000        1.000000000000
 13 H     1 shells
 l=0 nsto= 1
    1       1.200000000000        1.000000000000
 14 H     1 shells
 l=0 nsto= 1
    1       1.200000000000        1.000000000000
 15 C     2 shells
 l=0 nsto= 1
    2       1.625000000000        1.000000000000
 l=1 nsto= 1
    2       1.625000000000        1.000000000000
 16 C     2 shells
 l=0 nsto= 1
    2       1.625000000000        1.000000000000
 l=1 nsto= 1
    2       1.625000000000        1.000000000000
 17 C     2 shells
 l=0 nsto= 1
    2       1.625000000000        1.000000000000
 l=1 nsto= 1
    2       1.625000000000        1.000000000000
 18 H     1 shells
 l=0 nsto= 1
    1       1.200000000000        1.000000000000
 19 H     1 shells
 l=0 nsto= 1
    1       1.200000000000        1.000000000000
 20 H     1 shells
 l=0 nsto= 1
    1       1.200000000000        1.000000000000
 21 H     1 shells
 l=0 nsto= 1
    1       1.200000000000        1.000000000000
 22 H     1 shells
 l=0 nsto= 1
    1       1.200000000000        1.000000000000
 23 H     1 shells
 l=0 nsto= 1
    1       1.200000000000        1.000000000000
 24 H     1 shells
 l=0 nsto= 1
    1       1.200000000000        1.000000000000
 25 C     2 shells
 l=0 nsto= 1
    2       1.625000000000        1.000000000000
 l=1 nsto= 1
    2       1.625000000000        1.000000000000
 26 C     2 shells
 l=0 nsto= 1
    2       1.625000000000        1.000000000000
 l=1 nsto= 1
    2       1.625000000000        1.000000000000
 27 C     2 shells
 l=0 nsto= 1
    2       1.625000000000        1.000000000000
 l=1 nsto= 1
    2       1.625000000000        1.000000000000
 28 C     2 shells
 l=0 nsto= 1
    2       1.625000000000        1.000000000000
 l=1 nsto= 1
    2       1.625000000000        1.000000000000
 29 S     2 shells
 l=0 nsto= 1
    3       1.925000000000        1.000000000000
 l=1 nsto= 1
    3       1.925000000000        1.000000000000
 30 H     1 shells
 l=0 nsto= 1
    1       1.200000000000        1.000000000000
 31 C     2 shells
 l=0 nsto= 1
    2       1.625000000000        1.000000000000
 l=1 nsto= 1
    2       1.625000000000        1.000000000000
 32 C     2 shells
 l=0 nsto= 1
    2       1.625000000000        1.000000000000
 l=1 nsto= 1
    2       1.625000000000        1.000000000000
 33 C     2 shells
 l=0 nsto= 1
    2       1.625000000000        1.000000000000
 l=1 nsto= 1
    2       1.625000000000        1.000000000000
 34 H     1 shells
 l=0 nsto= 1
    1       1.200000000000        1.000000000000
 35 H     1 shells
 l=0 nsto= 1
    1       1.200000000000        1.000000000000
 36 H     1 shells
 l=0 nsto= 1
    1       1.200000000000        1.000000000000
 37 H     1 shells
 l=0 nsto= 1
    1       1.200000000000        1.000000000000
 38 H     1 shells
 l=0 nsto= 1
    1       1.200000000000        1.000000000000
 39 H     1 shells
 l=0 nsto= 1
    1       1.200000000000        1.000000000000
 40 C     2 shells
 l=0 nsto= 1
    2       1.625000000000        1.000000000000
 l=1 nsto= 1
    2       1.625000000000        1.000000000000
 41 C     2 shells
 l=0 nsto= 1
    2       1.625000000000        1.000000000000
 l=1 nsto= 1
    2       1.625000000000        1.000000000000
 42 C     2 shells
 l=0 nsto= 1
    2       1.625000000000        1.000000000000
 l=1 nsto= 1
    2       1.625000000000        1.000000000000
 43 H     1 shells
 l=0 nsto= 1
    1       1.200000000000        1.000000000000
 44 H     1 shells
 l=0 nsto= 1
    1       1.200000000000        1.000000000000
 45 H     1 shells
 l=0 nsto= 1
    1       1.200000000000        1.000000000000
 46 H     1 shells
 l=0 nsto= 1
    1       1.200000000000        1.000000000000
 47 H     1 shells
 l=0 nsto= 1
    1       1.200000000000        1.000000000000
 48 H     1 shells
 l=0 nsto= 1
    1       1.200000000000        1.000000000000
 49 H     1 shells
 l=0 nsto= 1
    1       1.200000000000        1.000000000000
 50 H     1 shells
 l=0 nsto= 1
    1       1.200000000000        1.000000000000
 51 H     1 shells
 l=0 nsto= 1
    1       1.200000000000        1.000000000000
 52 H     1 shells
 l=0 nsto= 1
    1       1.200000000000        1.000000000000
 53 H     1 shells
 l=0 nsto= 1
    1       1.200000000000        1.000000000000
------------------------------------------------------------------------------
                           ORCA NDO INTEGRAL CALCULATION
------------------------------------------------------------------------------

--------------
NDO PARAMETERS
--------------

Gamma integral treatment              ... Mataga-Nishimoto
Nuclear repulsuion treatment          ... Direct (ZA*ZB/RAB)
Interaction factors:
s-s (sigma) =    1.0000
s-p (sigma) =    1.0000
s-d (sigma) =    1.0000
p-p (sigma) =    1.2670  p-p(pi) =    0.5850
p-d (sigma) =    1.0000  p-d(pi) =    1.0000
d-d (sigma) =    1.0000  d-d(pi) =    1.0000 d-d (delta) =    1.0000

fGamma parameter for Mataga-Nishimoto gamma integrals:    1.2000

--------------------------
Parameters for Element H :
--------------------------
 One-electron parameters (in eV)
  U(s)  =   -13.060000 Beta(s) =    12.000000 Neff(s) =     1.000000
 One-center electron repulsion parameters (in eV)
  G(s,s)=    12.850000
--------------------------
Parameters for Element C :
--------------------------
 One-electron parameters (in eV)
  U(s)  =   -50.870766 Beta(s) =    17.000000 Neff(s) =     2.000000
  U(p)  =   -41.599980 Beta(p) =    17.000000 Neff(p) =     2.000000 
 One-center electron repulsion parameters (in eV)
  G(s,s)=    11.110000
  G(s,p)=    11.110000 G(p,p)  =    11.110000
 Slater-Condon parameters (in eV)
 F2(p,p)=     4.5098 G1(s,p)=    6.8977
--------------------------
Parameters for Element S :
--------------------------
 One-electron parameters (in eV)
  U(s)  =   -69.509597 Beta(s) =    15.000000 Neff(s) =     2.000000
  U(p)  =   -60.725746 Beta(p) =    15.000000 Neff(p) =     4.000000 
 One-center electron repulsion parameters (in eV)
  G(s,s)=    10.090000
  G(s,p)=    10.090000 G(p,p)  =    10.090000
 Slater-Condon parameters (in eV)
 F2(p,p)=     4.5377 G1(s,p)=    3.0756

 Number of atoms                    ....   54
 Number of basis functions          ....  120

 Overlap integrals                  .... done
 One electron matrix                .... done
 Nuclear repulsion                  .... done
 Integral list                      .... done
 Electron-electron repulsion        .... done
-------------------------------------------------------------------------------
                                 ORCA SCF
-------------------------------------------------------------------------------

------------
SCF SETTINGS
------------
Hamiltonian:
 ZDO-Hamiltonian        Method          .... INDO


General Settings:
 Integral files         IntName         .... /Users/mattyjones/GoogleDrive/Boise/Code/MorphCT/tests/output_EZ/donor_polymer/chromophores/input_orca/pair/00026-00029
 Hartree-Fock type      HFTyp           .... RHF
 Total Charge           Charge          ....    0
 Multiplicity           Mult            ....    1
 Number of Electrons    NEL             ....  124
 Basis Dimension        Dim             ....  120
 Nuclear Repulsion      ENuc            ....    734.6033636243 Eh

Convergence Acceleration:
 DIIS                   CNVDIIS         .... on
   Start iteration      DIISMaxIt       ....    12
   Startup error        DIISStart       ....  0.200000
   # of expansion vecs  DIISMaxEq       ....     5
   Bias factor          DIISBfac        ....   1.050
   Max. coefficient     DIISMaxC        ....  10.000
 Newton-Raphson         CNVNR           .... off
 SOSCF                  CNVSOSCF        .... on
   Start iteration      SOSCFMaxIt      ....   150
   Startup grad/error   SOSCFStart      ....  0.003300
 Level Shifting         CNVShift        .... on
   Level shift para.    LevelShift      ....    0.2500
   Turn off err/grad.   ShiftErr        ....    0.0010
 Zerner damping         CNVZerner       .... off
 Static damping         CNVDamp         .... on
   Fraction old density DampFac         ....    0.7000
   Max. Damping (<1)    DampMax         ....    0.9800
   Min. Damping (>=0)   DampMin         ....    0.0000
   Turn off err/grad.   DampErr         ....    0.1000
 Fernandez-Rico         CNVRico         .... off

SCF Procedure:
 Maximum # iterations   MaxIter         ....   125
 SCF integral mode      SCFMode         .... Conventional
 Integral Buffer length BufferLength    .... 1048576
 Integral index format  IndFormat       ....     0
 Integral value format  ValFormat       ....     0
 Integral Storage       Thresh          ....  1.000e-08 Eh

Convergence Tolerance:
 Convergence Check Mode ConvCheckMode   .... Total+1el-Energy
 Energy Change          TolE            ....  1.000e-06 Eh
 1-El. energy change                    ....  1.000e-03 Eh
 Orbital Gradient       TolG            ....  5.000e-05
 Orbital Rotation angle TolX            ....  5.000e-05
 DIIS Error             TolErr          ....  1.000e-06


Diagonalization of the overlap matrix:
Smallest eigenvalue                        ... 1.698e-01
Time for diagonalization                   ...    0.003 sec
Threshold for overlap eigenvalues          ... 1.000e-08
Number of eigenvalues below threshold      ... 0
Time for construction of square roots      ...    0.001 sec
Total time needed                          ...    0.004 sec

-------------------------------
INITIAL GUESS: EXTENDED HUECKEL
-------------------------------
EHT matrix was read from disk
EHT matrix was diagonalized
Initial density was built
                      ------------------
                      INITIAL GUESS DONE
                      ------------------

 InCore treatment chosen:
   Memory dedicated               ...    1024 MB
   Memory needed                  ...      0 MB
   Number of tiny    integrals    ...       0
   Number of small   integrals    ...       0
   Number of regular integrals    ...    7392

--------------
SCF ITERATIONS
--------------
ITER       Energy         Delta-E        Max-DP      RMS-DP      [F,P]     Damp
  0    -25.5157994599   0.000000000000 0.04471934  0.00144022  0.0994847 0.7000
  1    -25.5573446643  -0.041545204415 0.04411513  0.00135716  0.0710793 0.7000
                               ***Turning on DIIS***
  2    -25.5881000883  -0.030755424032 0.11775769  0.00348698  0.0469362 0.0000
  3    -25.6712272914  -0.083127203120 0.02368115  0.00072998  0.0201577 0.0000
  4    -25.6528324370   0.018394854407 0.01599005  0.00049855  0.0083219 0.0000
  5    -25.6697978479  -0.016965410914 0.01126584  0.00033650  0.0049789 0.0000
  6    -25.6722251924  -0.002427344487 0.00838601  0.00023876  0.0030615 0.0000
                      *** Initiating the SOSCF procedure ***
                           *** Shutting down DIIS ***
                      *** Re-Reading the Fockian *** 
                      *** Removing any level shift *** 
ITER      Energy       Delta-E        Grad      Rot      Max-DP    RMS-DP
  7    -25.66838301   0.0038421796  0.003001  0.003001  0.005025  0.000135
  8    -25.66707239   0.0013106237  0.000800  0.002194  0.002522  0.000062
  9    -25.66708688  -0.0000144896  0.000355  0.002158  0.002808  0.000066
 10    -25.66709218  -0.0000052991  0.000029  0.000058  0.000132  0.000004
                 **** Energy Check signals convergence ****
              ***Rediagonalizing the Fockian in SOSCF/NRSCF***

               *****************************************************
               *                     SUCCESS                       *
               *           SCF CONVERGED AFTER  11 CYCLES          *
               *****************************************************


----------------
TOTAL SCF ENERGY
----------------

Total Energy       :          -25.66709222 Eh            -698.43709 eV

Components:
Nuclear Repulsion  :          734.60336362 Eh           19989.57377 eV
Electronic Energy  :         -760.27045585 Eh          -20688.01086 eV

One Electron Energy:        -1430.19962156 Eh          -38917.71024 eV
Two Electron Energy:          669.92916571 Eh           18229.69938 eV


---------------
SCF CONVERGENCE
---------------

  Last Energy change         ...   -4.3769e-08  Tolerance :   1.0000e-06
  Last MAX-Density change    ...    3.1417e-05  Tolerance :   1.0000e-05
  Last RMS-Density change    ...    1.1126e-06  Tolerance :   1.0000e-06
  Last Orbital Gradient      ...    7.1284e-06  Tolerance :   5.0000e-05
  Last Orbital Rotation      ...    1.9047e-05  Tolerance :   5.0000e-05

             **** THE GBW FILE WAS UPDATED (/Users/mattyjones/GoogleDrive/Boise/Code/MorphCT/tests/output_EZ/donor_polymer/chromophores/input_orca/pair/00026-00029.gbw) ****
             **** DENSITY FILE WAS UPDATED (/Users/mattyjones/GoogleDrive/Boise/Code/MorphCT/tests/output_EZ/donor_polymer/chromophores/input_orca/pair/00026-00029.scfp.tmp) ****
             **** ENERGY FILE WAS UPDATED (/Users/mattyjones/GoogleDrive/Boise/Code/MorphCT/tests/output_EZ/donor_polymer/chromophores/input_orca/pair/00026-00029.en.tmp) ****
----------------
ORBITAL ENERGIES
----------------

  NO   OCC          E(Eh)            E(eV) 
   0   2.0000      -1.556425       -42.3525 
   1   2.0000      -1.555477       -42.3267 
   2   2.0000      -1.409733       -38.3608 
   3   2.0000      -1.396260       -37.9942 
   4   2.0000      -1.285526       -34.9809 
   5   2.0000      -1.278085       -34.7785 
   6   2.0000      -1.187601       -32.3163 
   7   2.0000      -1.174709       -31.9654 
   8   2.0000      -1.112498       -30.2726 
   9   2.0000      -1.106703       -30.1149 
  10   2.0000      -1.051670       -28.6174 
  11   2.0000      -1.046132       -28.4667 
  12   2.0000      -0.991061       -26.9681 
  13   2.0000      -0.965536       -26.2736 
  14   2.0000      -0.910706       -24.7816 
  15   2.0000      -0.906881       -24.6775 
  16   2.0000      -0.836738       -22.7688 
  17   2.0000      -0.835738       -22.7416 
  18   2.0000      -0.828669       -22.5492 
  19   2.0000      -0.823246       -22.4017 
  20   2.0000      -0.777022       -21.1438 
  21   2.0000      -0.776040       -21.1171 
  22   2.0000      -0.732654       -19.9365 
  23   2.0000      -0.724822       -19.7234 
  24   2.0000      -0.704909       -19.1815 
  25   2.0000      -0.701598       -19.0914 
  26   2.0000      -0.693726       -18.8772 
  27   2.0000      -0.670006       -18.2318 
  28   2.0000      -0.633376       -17.2350 
  29   2.0000      -0.633294       -17.2328 
  30   2.0000      -0.620877       -16.8949 
  31   2.0000      -0.613210       -16.6863 
  32   2.0000      -0.599904       -16.3242 
  33   2.0000      -0.590918       -16.0797 
  34   2.0000      -0.577666       -15.7191 
  35   2.0000      -0.571326       -15.5466 
  36   2.0000      -0.566893       -15.4259 
  37   2.0000      -0.559522       -15.2254 
  38   2.0000      -0.549526       -14.9534 
  39   2.0000      -0.544362       -14.8128 
  40   2.0000      -0.534788       -14.5523 
  41   2.0000      -0.531808       -14.4712 
  42   2.0000      -0.521222       -14.1832 
  43   2.0000      -0.512614       -13.9489 
  44   2.0000      -0.504497       -13.7280 
  45   2.0000      -0.503531       -13.7018 
  46   2.0000      -0.499964       -13.6047 
  47   2.0000      -0.497801       -13.5458 
  48   2.0000      -0.490921       -13.3586 
  49   2.0000      -0.489806       -13.3283 
  50   2.0000      -0.479998       -13.0614 
  51   2.0000      -0.472941       -12.8694 
  52   2.0000      -0.470386       -12.7999 
  53   2.0000      -0.464399       -12.6369 
  54   2.0000      -0.461579       -12.5602 
  55   2.0000      -0.439338       -11.9550 
  56   2.0000      -0.438031       -11.9194 
  57   2.0000      -0.430417       -11.7122 
  58   2.0000      -0.357575        -9.7301 
  59   2.0000      -0.357135        -9.7181 
  60   2.0000      -0.305897        -8.3239 
  61   2.0000      -0.304951        -8.2981 
  62   0.0000       0.005506         0.1498 
  63   0.0000       0.007671         0.2087 
  64   0.0000       0.039874         1.0850 
  65   0.0000       0.067868         1.8468 
  66   0.0000       0.072601         1.9756 
  67   0.0000       0.077843         2.1182 
  68   0.0000       0.084678         2.3042 
  69   0.0000       0.090007         2.4492 
  70   0.0000       0.099126         2.6974 
  71   0.0000       0.103460         2.8153 
  72   0.0000       0.106068         2.8863 
  73   0.0000       0.107646         2.9292 
  74   0.0000       0.120677         3.2838 
  75   0.0000       0.121760         3.3132 
  76   0.0000       0.141731         3.8567 
  77   0.0000       0.145582         3.9615 
  78   0.0000       0.158361         4.3092 
  79   0.0000       0.158605         4.3159 
  80   0.0000       0.163835         4.4582 
  81   0.0000       0.164140         4.4665 
  82   0.0000       0.169749         4.6191 
  83   0.0000       0.173923         4.7327 
  84   0.0000       0.201914         5.4944 
  85   0.0000       0.205279         5.5859 
  86   0.0000       0.220142         5.9904 
  87   0.0000       0.229284         6.2391 
  88   0.0000       0.231772         6.3068 
  89   0.0000       0.232957         6.3391 
  90   0.0000       0.234010         6.3677 
  91   0.0000       0.236693         6.4407 
  92   0.0000       0.236716         6.4414 
  93   0.0000       0.238712         6.4957 
  94   0.0000       0.239031         6.5044 
  95   0.0000       0.239310         6.5120 
  96   0.0000       0.241975         6.5845 
  97   0.0000       0.242067         6.5870 
  98   0.0000       0.243232         6.6187 
  99   0.0000       0.244223         6.6456 
 100   0.0000       0.244500         6.6532 
 101   0.0000       0.255852         6.9621 
 102   0.0000       0.255903         6.9635 
 103   0.0000       0.260178         7.0798 
 104   0.0000       0.265072         7.2130 
 105   0.0000       0.266851         7.2614 
 106   0.0000       0.279088         7.5944 
 107   0.0000       0.283535         7.7154 
 108   0.0000       0.304712         8.2916 
 109   0.0000       0.304810         8.2943 
 110   0.0000       0.308635         8.3984 
 111   0.0000       0.310155         8.4397 
 112   0.0000       0.339261         9.2318 
 113   0.0000       0.341732         9.2990 
 114   0.0000       0.353499         9.6192 
 115   0.0000       0.364425         9.9165 
 116   0.0000       0.404632        11.0106 
 117   0.0000       0.409037        11.1305 
 118   0.0000       0.430843        11.7238 
 119   0.0000       0.437910        11.9161 
-------
TIMINGS
-------

Total SCF time: 0 days 0 hours 0 min 0 sec 

Total time                  ....       0.147 sec
Sum of individual times     ....       0.116 sec  ( 78.9%)

Fock matrix formation       ....       0.055 sec  ( 37.8%)
Diagonalization             ....       0.023 sec  ( 15.8%)
Density matrix formation    ....       0.006 sec  (  4.1%)
Population analysis         ....       0.000 sec  (  0.0%)
Initial guess               ....       0.003 sec  (  1.9%)
Orbital Transformation      ....       0.000 sec  (  0.0%)
Orbital Orthonormalization  ....       0.000 sec  (  0.0%)
DIIS solution               ....       0.022 sec  ( 14.7%)
SOSCF solution              ....       0.007 sec  (  4.6%)

-------------------------   --------------------
FINAL SINGLE POINT ENERGY       -25.667092221664
-------------------------   --------------------


                            ***************************************
                            *     ORCA property calculations      *
                            ***************************************

                                    ---------------------
                                    Active property flags
                                    ---------------------
   (+) Dipole Moment


------------------------------------------------------------------------------
                       ORCA ELECTRIC PROPERTIES CALCULATION
------------------------------------------------------------------------------

Dipole Moment Calculation                       ... on
Quadrupole Moment Calculation                   ... off
Polarizability Calculation                      ... off
GBWName                                         ... /Users/mattyjones/GoogleDrive/Boise/Code/MorphCT/tests/output_EZ/donor_polymer/chromophores/input_orca/pair/00026-00029.gbw
Electron density file                           ... /Users/mattyjones/GoogleDrive/Boise/Code/MorphCT/tests/output_EZ/donor_polymer/chromophores/input_orca/pair/00026-00029.scfp.tmp

-------------
DIPOLE MOMENT
-------------
                                X             Y             Z
Electronic contribution:     39.99331     -64.60968     -68.26682
Nuclear contribution   :    -22.95150      35.62317      37.41486
                        -----------------------------------------
Total Dipole Moment    :     17.04181     -28.98651     -30.85196
                        -----------------------------------------
Magnitude (a.u.)       :     45.63424
Magnitude (Debye)      :    115.99303


Timings for individual modules:

Sum of individual times         ...        0.247 sec (=   0.004 min)
STO integral calculation        ...        0.051 sec (=   0.001 min)  20.7 %
SCF iterations                  ...        0.196 sec (=   0.003 min)  79.3 %
                             ****ORCA TERMINATED NORMALLY****
TOTAL RUN TIME: 0 days 0 hours 0 minutes 0 seconds 547 msec

