
                                 *****************
                                 * O   R   C   A *
                                 *****************

           --- An Ab Initio, DFT and Semiempirical electronic structure package ---

                  #######################################################
                  #                        -***-                        #
                  #  Department of molecular theory and spectroscopy    #
                  #              Directorship: Frank Neese              #
                  # Max Planck Institute for Chemical Energy Conversion #
                  #                  D-45470 Muelheim/Ruhr              #
                  #                       Germany                       #
                  #                                                     #
                  #                  All rights reserved                #
                  #                        -***-                        #
                  #######################################################


                         Program Version 3.0.3 - RELEASE   -


 With contributions from (in alphabetic order):
   Ute Becker             : Parallelization
   Dmytro Bykov           : SCF Hessian
   Dmitry Ganyushin       : Spin-Orbit,Spin-Spin,Magnetic field MRCI
   Andreas Hansen         : Spin unrestricted coupled pair/coupled cluster methods
   Dimitrios Liakos       : Extrapolation schemes; parallel MDCI
   Robert Izsak           : Overlap fitted RIJCOSX, COSX-SCS-MP3
   Christian Kollmar      : KDIIS, OOCD, Brueckner-CCSD(T), CCSD density
   Simone Kossmann        : Meta GGA functionals, TD-DFT gradient, OOMP2, MP2 Hessian
   Taras Petrenko         : DFT Hessian,TD-DFT gradient, ASA and ECA modules, normal mode analysis, Resonance Raman, ABS, FL, XAS/XES, NRVS
   Christoph Reimann      : Effective Core Potentials
   Michael Roemelt        : Restricted open shell CIS
   Christoph Riplinger    : Improved optimizer, TS searches, QM/MM, DLPNO-CCSD
   Barbara Sandhoefer     : DKH picture change effects
   Igor Schapiro          : Molecular dynamics
   Kantharuban Sivalingam : CASSCF convergence, NEVPT2
   Boris Wezisla          : Elementary symmetry handling
   Frank Wennmohs         : Technical directorship


 We gratefully acknowledge several colleagues who have allowed us to
 interface, adapt or use parts of their codes:
   Stefan Grimme, W. Hujo, H. Kruse, T. Risthaus : VdW corrections, initial TS optimization,
                                                   DFT functionals, gCP
   Ed Valeev                                     : LibInt (2-el integral package), F12 methods
   Garnet Chan, S. Sharma, R. Olivares           : DMRG
   Ulf Ekstrom                                   : XCFun DFT Library
   Mihaly Kallay                                 : mrcc  (arbitrary order and MRCC methods)
   Andreas Klamt, Michael Diedenhofen            : otool_cosmo (COSMO solvation model)
   Frank Weinhold                                : gennbo (NPA and NBO analysis)
   Christopher J. Cramer and Donald G. Truhlar   : smd solvation model


 Your calculation uses the libint2 library for the computation of 2-el integrals
 For citations please refer to: http://libint.valeyev.net

 This ORCA versions uses:
   CBLAS   interface :  Fast vector & matrix operations
   LAPACKE interface :  Fast linear algebra routines
   SCALAPACK package :  Parallel linear algebra routines


leaving
================================================================================
                                        WARNINGS
                       Please study these warnings very carefully!
================================================================================
Now building the actual basis set

WARNING: Direct SCF is incompatible with Method<>HF and Method<>DFT
  ===> : conventional SCF is chosen

WARNING: The NDO methods need Guess=HUECKEL or Guess=HCORE or Guess=MOREAD
  ===> : Guess is set to Hueckel

WARNING: The NDO methods need %rel::SOCType==1
  ===> : %rel::SOCType is set to 1

WARNING: The NDO methods cannot have frozencore=1
  ===> : %method FrozenCore=0 end


INFO   : the flag for use of LIBINT has been found!

================================================================================
                                       INPUT FILE
================================================================================
NAME = /Users/mattyjones/GoogleDrive/Boise/Code/MorphCT/tests/output_EZ/donor_polymer/chromophores/input_orca/pair/00021-00022.inp
|  1> # ================================================================
|  2> # Orca input file made by Matty Jones
|  3> # ================================================================
|  4> ! ZINDO/S 
|  5> ! NOPOP
|  6> ! NOMOPRINT
|  7> * xyz 0   1
|  8>  C  2.20106  -2.81347  -3.17567
|  9>  C  1.02520  -3.40513  -2.71180
| 10>  C  0.22186  -2.54735  -1.89746
| 11>  C  0.76614  -1.27194  -1.71741
| 12>  S  2.19261  -1.27267  -2.56334
| 13>  H  0.71958  -4.47920  -2.94706
| 14>  C  -1.16789  -3.10546  -1.27868
| 15>  C  -2.68267  -2.32283  -1.38415
| 16>  C  -3.90564  -3.10785  -0.49314
| 17>  H  -3.34354  -3.73077  0.30969
| 18>  H  -4.47199  -2.25504  0.05636
| 19>  H  -2.99058  -2.42369  -2.49973
| 20>  H  -2.71717  -1.22673  -1.11465
| 21>  H  -1.00480  -3.25497  -0.13038
| 22>  H  -1.37127  -4.16486  -1.73131
| 23>  C  -5.02710  -4.07717  -1.16556
| 24>  C  -5.93218  -4.88437  0.02432
| 25>  C  -7.20574  -4.02318  0.70869
| 26>  H  -6.78969  -3.31925  1.52848
| 27>  H  -7.95602  -4.76610  1.18372
| 28>  H  -7.73862  -3.39971  -0.10624
| 29>  H  -5.21443  -5.19604  0.87001
| 30>  H  -6.37602  -5.82928  -0.46699
| 31>  H  -5.75827  -3.45256  -1.80568
| 32>  H  -4.52169  -4.86993  -1.83400
| 33>  C  0.29161  -0.03710  -0.68895
| 34>  C  1.13724  0.94326  -0.16770
| 35>  C  0.48338  1.88313  0.68864
| 36>  C  -0.88547  1.64375  0.84438
| 37>  S  -1.21016  0.30068  -0.07276
| 38>  H  2.25825  0.99100  -0.38180
| 39>  C  1.27911  3.08944  1.39073
| 40>  C  2.34273  3.96072  0.40762
| 41>  C  3.02456  5.26721  1.23552
| 42>  H  2.16427  5.78243  1.81668
| 43>  H  3.40462  6.00587  0.42698
| 44>  H  3.18719  3.26041  0.06238
| 45>  H  1.76198  4.35913  -0.50152
| 46>  H  0.59011  3.90546  1.81618
| 47>  H  1.91206  2.66123  2.27572
| 48>  C  4.23725  4.95166  2.27078
| 49>  C  5.78443  4.83972  1.60995
| 50>  C  6.23795  3.25817  1.25697
| 51>  H  7.27860  3.05205  1.72117
| 52>  H  6.29046  3.12007  0.10944
| 53>  H  5.46683  2.51764  1.69983
| 54>  H  5.81353  5.45357  0.63510
| 55>  H  6.53580  5.27914  2.36462
| 56>  H  4.01586  3.96061  2.82621
| 57>  H  4.27553  5.80266  3.05901
| 58>  H  2.94306  -3.25588  -3.78993
| 59>  H  -1.57188  2.20352  1.42670
| 60> *
| 61> 
| 62>                          ****END OF INPUT****
================================================================================

                       ****************************
                       * Single Point Calculation *
                       ****************************

---------------------------------
CARTESIAN COORDINATES (ANGSTROEM)
---------------------------------
  C      2.201060   -2.813470   -3.175670
  C      1.025200   -3.405130   -2.711800
  C      0.221860   -2.547350   -1.897460
  C      0.766140   -1.271940   -1.717410
  S      2.192610   -1.272670   -2.563340
  H      0.719580   -4.479200   -2.947060
  C     -1.167890   -3.105460   -1.278680
  C     -2.682670   -2.322830   -1.384150
  C     -3.905640   -3.107850   -0.493140
  H     -3.343540   -3.730770    0.309690
  H     -4.471990   -2.255040    0.056360
  H     -2.990580   -2.423690   -2.499730
  H     -2.717170   -1.226730   -1.114650
  H     -1.004800   -3.254970   -0.130380
  H     -1.371270   -4.164860   -1.731310
  C     -5.027100   -4.077170   -1.165560
  C     -5.932180   -4.884370    0.024320
  C     -7.205740   -4.023180    0.708690
  H     -6.789690   -3.319250    1.528480
  H     -7.956020   -4.766100    1.183720
  H     -7.738620   -3.399710   -0.106240
  H     -5.214430   -5.196040    0.870010
  H     -6.376020   -5.829280   -0.466990
  H     -5.758270   -3.452560   -1.805680
  H     -4.521690   -4.869930   -1.834000
  C      0.291610   -0.037100   -0.688950
  C      1.137240    0.943260   -0.167700
  C      0.483380    1.883130    0.688640
  C     -0.885470    1.643750    0.844380
  S     -1.210160    0.300680   -0.072760
  H      2.258250    0.991000   -0.381800
  C      1.279110    3.089440    1.390730
  C      2.342730    3.960720    0.407620
  C      3.024560    5.267210    1.235520
  H      2.164270    5.782430    1.816680
  H      3.404620    6.005870    0.426980
  H      3.187190    3.260410    0.062380
  H      1.761980    4.359130   -0.501520
  H      0.590110    3.905460    1.816180
  H      1.912060    2.661230    2.275720
  C      4.237250    4.951660    2.270780
  C      5.784430    4.839720    1.609950
  C      6.237950    3.258170    1.256970
  H      7.278600    3.052050    1.721170
  H      6.290460    3.120070    0.109440
  H      5.466830    2.517640    1.699830
  H      5.813530    5.453570    0.635100
  H      6.535800    5.279140    2.364620
  H      4.015860    3.960610    2.826210
  H      4.275530    5.802660    3.059010
  H      2.943060   -3.255880   -3.789930
  H     -1.571880    2.203520    1.426700

----------------------------
CARTESIAN COORDINATES (A.U.)
----------------------------
  NO LB      ZA    FRAG    MASS        X           Y           Z
   0 C     4.0000    0    12.011          4.159400604328710         -5.316687786003424         -6.001146591709702
   1 C     4.0000    0    12.011          1.937347232496067         -6.434763150399272         -5.124559329967651
   2 C     4.0000    0    12.011          0.419254640071769         -4.813793867244300         -3.585679750070218
   3 C     4.0000    0    12.011          1.447794780242428         -2.403618258779797         -3.245434559657697
   4 S     6.0000    0    32.060          4.143432418497076         -2.404997758857559         -4.844010588125702
   5 H     1.0000    0     1.008          1.359809131447054         -8.464461299060069         -5.569136300233964
   6 C     4.0000    0    12.011         -2.206992254545291         -5.868468919847090         -2.416355012922426
   7 C     4.0000    0    12.011         -5.069511607686524         -4.389512555656301         -2.615664428267101
   8 C     4.0000    0    12.011         -7.380589977688198         -5.872985365307162         -0.931899545681926
   9 H     1.0000    0     1.008         -6.318374917811061         -7.050133568649389          0.585229286414072
  10 H     1.0000    0     1.008         -8.450836373634498         -4.261408021037780          0.106504964907802
  11 H     1.0000    0     1.008         -5.651377181582217         -4.580110333523598         -4.723805108746970
  12 H     1.0000    0     1.008         -5.134707159306807         -2.318183740265217         -2.106383235175323
  13 H     1.0000    0     1.008         -1.898796819364073         -6.151001874129657         -0.246382493340653
  14 H     1.0000    0     1.008         -2.591324755662195         -7.870444786123264         -3.271701752919202
  15 C     4.0000    0    12.011         -9.499842247835524         -7.704734701439709         -2.202589192653254
  16 C     4.0000    0    12.011        -11.210195577124971         -9.230121636740943          0.045958139576965
  17 C     4.0000    0    12.011        -13.616875192241720         -7.602708387469301          1.339230013848652
  18 H     1.0000    0     1.008        -12.830654634223784         -6.272473470018114          2.888408601175955
  19 H     1.0000    0     1.008        -15.034698916000156         -9.006623726882077          2.236906619245264
  20 H     1.0000    0     1.008        -14.623872454485676         -6.424520834753418         -0.200764504467794
  21 H     1.0000    0     1.008         -9.853844644502992         -9.819092580900181          1.644080633772828
  22 H     1.0000    0     1.008        -12.048931624404577        -11.015742757944473         -0.882483207279885
  23 H     1.0000    0     1.008        -10.881553305174727         -6.524392860931156         -3.412240685498926
  24 H     1.0000    0     1.008         -8.544755762490386         -9.202833991367122         -3.465757729611576
  25 C     4.0000    0    12.011          0.551063037912776         -0.070108839568478         -1.301926819965046
  26 C     4.0000    0    12.011          2.149072148540604          1.782503073082560         -0.316907072658594
  27 C     4.0000    0    12.011          0.913455818614855          3.558599974571127          1.301341004863531
  28 C     4.0000    0    12.011         -1.673295799803251          3.106237332633058          1.595646952960426
  29 S     6.0000    0    32.060         -2.286870978226142          0.568202853947442         -0.137496473504110
  30 H     1.0000    0     1.008          4.267474041927667          1.872718598715960         -0.721497437931134
  31 C     4.0000    0    12.011          2.417167595160012          5.838195507181672          2.628098826228302
  32 C     4.0000    0    12.011          4.427118105721334          7.484676093144579          0.770290166708981
  33 C     4.0000    0    12.011          5.715590075612861          9.953584389851356          2.334794432982385
  34 H     1.0000    0     1.008          4.089877579861747         10.927209088570264          3.433027672972059
  35 H     1.0000    0     1.008          6.433799390070972         11.349449495933627          0.806875264661696
  36 H     1.0000    0     1.008          6.022916236772474          6.161281984298188          0.117881116234008
  37 H     1.0000    0     1.008          3.329659653446567          8.237561882160147         -0.947735450684186
  38 H     1.0000    0     1.008          1.115146288888270          7.380249826984092          3.432082809905099
  39 H     1.0000    0     1.008          3.613269751625469          5.028995879375253          4.300487557487271
  40 C     4.0000    0    12.011          8.007242060957825          9.357281308292507          4.291152310385700
  41 C     4.0000    0    12.011         10.930988540838106          9.145745364861360          3.042364589306519
  42 C     4.0000    0    12.011         11.788017137094071          6.157048997758204          2.375329058554996
  43 H     1.0000    0     1.008         13.754560638359223          5.767538647034356          3.252539929921241
  44 H     1.0000    0     1.008         11.887246656386278          5.896077818663680          0.206811628096342
  45 H     1.0000    0     1.008         10.330811520704716          4.757650103805500          3.212213174223361
  46 H     1.0000    0     1.008         10.985979571335214         10.305753752168920          1.200165067653387
  47 H     1.0000    0     1.008         12.350872066082516          9.976128822629036          4.468484210792870
  48 H     1.0000    0     1.008          7.588875592168998          7.484468223269849          5.340762896949581
  49 H     1.0000    0     1.008          8.079580777364329         10.965438248259490          5.780691140926447
  50 H     1.0000    0     1.008          5.561577395698279         -6.152721524911525         -7.161929766732169
  51 H     1.0000    0     1.008         -2.970422715388137          4.164049330618156          2.696072275265450

--------------------------------
INTERNAL COORDINATES (ANGSTROEM)
--------------------------------
 C      0   0   0   0.000000     0.000     0.000
 C      1   0   0   1.395666     0.000     0.000
 C      2   1   0   1.429787   114.101     0.000
 C      3   2   1   1.398331   113.693     0.000
 S      1   2   3   1.658036   105.481     0.000
 H      2   1   3   1.141217   123.786   180.340
 C      3   2   1   1.620426   119.521   180.493
 C      7   3   2   1.708272   125.389   230.362
 C      8   7   3   1.704644   113.136   185.698
 H      9   8   7   1.161259   105.137    22.473
 H      9   8   7   1.161890   105.004   135.874
 H      8   7   3   1.161680   104.747    70.983
 H      8   7   3   1.129272   117.196   311.625
 H      7   3   2   1.169421   107.421   108.009
 H      7   3   2   1.169857   108.256   353.062
 C      9   8   7   1.627699   123.547   258.981
 C     16   9   8   1.698987   111.140   170.989
 C     17  16   9   1.682844   116.413    82.311
 H     18  17  16   1.157873   109.094   278.830
 H     18  17  16   1.157801   109.202   159.285
 H     18  17  16   1.156195   109.762    39.035
 H     17  16   9   1.152170   108.102   320.431
 H     17  16   9   1.153791   107.205   202.695
 H     16   9   8   1.155206   110.060   290.494
 H     16   9   8   1.153568   110.290    50.962
 C      4   3   2   1.675631   129.863   189.494
 C     26   4   3   1.395671   125.120   152.297
 C     27  26   4   1.429758   114.101   180.099
 C     28  27  26   1.398323   113.694     0.000
 S     26   4   3   1.658041   129.400   332.419
 H     27  26   4   1.142270   123.640   358.985
 C     28  27  26   1.606643   121.924   179.964
 C     32  28  27   1.690243   116.393    45.556
 C     33  32  28   1.690333   111.554   175.745
 H     34  33  32   1.159007   106.844   315.604
 H     34  33  32   1.159224   106.447   200.332
 H     33  32  28   1.150103   108.830   295.739
 H     33  32  28   1.150016   108.700    55.713
 H     32  28  27   1.149616   113.443   164.949
 H     32  28  27   1.169272   108.898   284.883
 C     34  33  32   1.625408   117.571    78.024
 C     41  34  33   1.686118   116.607    84.175
 C     42  41  34   1.682729   113.074   264.810
 H     43  42  41   1.157981   108.991   230.632
 H     43  42  41   1.157002   109.418   110.791
 H     43  42  41   1.157210   109.973   350.508
 H     42  41  34   1.152385   108.624    25.239
 H     42  41  34   1.152030   108.446   144.219
 H     41  34  33   1.157452   109.218   321.632
 H     41  34  33   1.160592   108.351   204.275
 H      1   2   3   1.060003   127.259   180.000
 H     29  28  27   1.059999   127.207   180.001

---------------------------
INTERNAL COORDINATES (A.U.)
---------------------------
 C      0   0   0   0.000000     0.000     0.000
 C      1   0   0   2.637427     0.000     0.000
 C      2   1   0   2.701906   114.101     0.000
 C      3   2   1   2.642463   113.693     0.000
 S      1   2   3   3.133234   105.481     0.000
 H      2   1   3   2.156588   123.786   180.340
 C      3   2   1   3.062161   119.521   180.493
 C      7   3   2   3.228166   125.389   230.362
 C      8   7   3   3.221310   113.136   185.698
 H      9   8   7   2.194461   105.137    22.473
 H      9   8   7   2.195653   105.004   135.874
 H      8   7   3   2.195257   104.747    70.983
 H      8   7   3   2.134015   117.196   311.625
 H      7   3   2   2.209885   107.421   108.009
 H      7   3   2   2.210710   108.256   353.062
 C      9   8   7   3.075904   123.547   258.981
 C     16   9   8   3.210620   111.140   170.989
 C     17  16   9   3.180115   116.413    82.311
 H     18  17  16   2.188064   109.094   278.830
 H     18  17  16   2.187927   109.202   159.285
 H     18  17  16   2.184892   109.762    39.035
 H     17  16   9   2.177285   108.102   320.431
 H     17  16   9   2.180350   107.205   202.695
 H     16   9   8   2.183023   110.060   290.494
 H     16   9   8   2.179928   110.290    50.962
 C      4   3   2   3.166483   129.863   189.494
 C     26   4   3   2.637436   125.120   152.297
 C     27  26   4   2.701850   114.101   180.099
 C     28  27  26   2.642448   113.694     0.000
 S     26   4   3   3.133243   129.400   332.419
 H     27  26   4   2.158578   123.640   358.985
 C     28  27  26   3.036114   121.924   179.964
 C     32  28  27   3.194096   116.393    45.556
 C     33  32  28   3.194267   111.554   175.745
 H     34  33  32   2.190206   106.844   315.604
 H     34  33  32   2.190617   106.447   200.332
 H     33  32  28   2.173380   108.830   295.739
 H     33  32  28   2.173215   108.700    55.713
 H     32  28  27   2.172460   113.443   164.949
 H     32  28  27   2.209604   108.898   284.883
 C     34  33  32   3.071577   117.571    78.024
 C     41  34  33   3.186301   116.607    84.175
 C     42  41  34   3.179896   113.074   264.810
 H     43  42  41   2.188267   108.991   230.632
 H     43  42  41   2.186417   109.418   110.791
 H     43  42  41   2.186811   109.973   350.508
 H     42  41  34   2.177692   108.624    25.239
 H     42  41  34   2.177022   108.446   144.219
 H     41  34  33   2.187268   109.218   321.632
 H     41  34  33   2.193200   108.351   204.275
 H      1   2   3   2.003115   127.259   180.000
 H     29  28  27   2.003108   127.207   180.001

----------------------------
SLATER BASIS SET DIM= 118
----------------------------
  0 C     2 shells
 l=0 nsto= 1
    2       1.625000000000        1.000000000000
 l=1 nsto= 1
    2       1.625000000000        1.000000000000
  1 C     2 shells
 l=0 nsto= 1
    2       1.625000000000        1.000000000000
 l=1 nsto= 1
    2       1.625000000000        1.000000000000
  2 C     2 shells
 l=0 nsto= 1
    2       1.625000000000        1.000000000000
 l=1 nsto= 1
    2       1.625000000000        1.000000000000
  3 C     2 shells
 l=0 nsto= 1
    2       1.625000000000        1.000000000000
 l=1 nsto= 1
    2       1.625000000000        1.000000000000
  4 S     2 shells
 l=0 nsto= 1
    3       1.925000000000        1.000000000000
 l=1 nsto= 1
    3       1.925000000000        1.000000000000
  5 H     1 shells
 l=0 nsto= 1
    1       1.200000000000        1.000000000000
  6 C     2 shells
 l=0 nsto= 1
    2       1.625000000000        1.000000000000
 l=1 nsto= 1
    2       1.625000000000        1.000000000000
  7 C     2 shells
 l=0 nsto= 1
    2       1.625000000000        1.000000000000
 l=1 nsto= 1
    2       1.625000000000        1.000000000000
  8 C     2 shells
 l=0 nsto= 1
    2       1.625000000000        1.000000000000
 l=1 nsto= 1
    2       1.625000000000        1.000000000000
  9 H     1 shells
 l=0 nsto= 1
    1       1.200000000000        1.000000000000
 10 H     1 shells
 l=0 nsto= 1
    1       1.200000000000        1.000000000000
 11 H     1 shells
 l=0 nsto= 1
    1       1.200000000000        1.000000000000
 12 H     1 shells
 l=0 nsto= 1
    1       1.200000000000        1.000000000000
 13 H     1 shells
 l=0 nsto= 1
    1       1.200000000000        1.000000000000
 14 H     1 shells
 l=0 nsto= 1
    1       1.200000000000        1.000000000000
 15 C     2 shells
 l=0 nsto= 1
    2       1.625000000000        1.000000000000
 l=1 nsto= 1
    2       1.625000000000        1.000000000000
 16 C     2 shells
 l=0 nsto= 1
    2       1.625000000000        1.000000000000
 l=1 nsto= 1
    2       1.625000000000        1.000000000000
 17 C     2 shells
 l=0 nsto= 1
    2       1.625000000000        1.000000000000
 l=1 nsto= 1
    2       1.625000000000        1.000000000000
 18 H     1 shells
 l=0 nsto= 1
    1       1.200000000000        1.000000000000
 19 H     1 shells
 l=0 nsto= 1
    1       1.200000000000        1.000000000000
 20 H     1 shells
 l=0 nsto= 1
    1       1.200000000000        1.000000000000
 21 H     1 shells
 l=0 nsto= 1
    1       1.200000000000        1.000000000000
 22 H     1 shells
 l=0 nsto= 1
    1       1.200000000000        1.000000000000
 23 H     1 shells
 l=0 nsto= 1
    1       1.200000000000        1.000000000000
 24 H     1 shells
 l=0 nsto= 1
    1       1.200000000000        1.000000000000
 25 C     2 shells
 l=0 nsto= 1
    2       1.625000000000        1.000000000000
 l=1 nsto= 1
    2       1.625000000000        1.000000000000
 26 C     2 shells
 l=0 nsto= 1
    2       1.625000000000        1.000000000000
 l=1 nsto= 1
    2       1.625000000000        1.000000000000
 27 C     2 shells
 l=0 nsto= 1
    2       1.625000000000        1.000000000000
 l=1 nsto= 1
    2       1.625000000000        1.000000000000
 28 C     2 shells
 l=0 nsto= 1
    2       1.625000000000        1.000000000000
 l=1 nsto= 1
    2       1.625000000000        1.000000000000
 29 S     2 shells
 l=0 nsto= 1
    3       1.925000000000        1.000000000000
 l=1 nsto= 1
    3       1.925000000000        1.000000000000
 30 H     1 shells
 l=0 nsto= 1
    1       1.200000000000        1.000000000000
 31 C     2 shells
 l=0 nsto= 1
    2       1.625000000000        1.000000000000
 l=1 nsto= 1
    2       1.625000000000        1.000000000000
 32 C     2 shells
 l=0 nsto= 1
    2       1.625000000000        1.000000000000
 l=1 nsto= 1
    2       1.625000000000        1.000000000000
 33 C     2 shells
 l=0 nsto= 1
    2       1.625000000000        1.000000000000
 l=1 nsto= 1
    2       1.625000000000        1.000000000000
 34 H     1 shells
 l=0 nsto= 1
    1       1.200000000000        1.000000000000
 35 H     1 shells
 l=0 nsto= 1
    1       1.200000000000        1.000000000000
 36 H     1 shells
 l=0 nsto= 1
    1       1.200000000000        1.000000000000
 37 H     1 shells
 l=0 nsto= 1
    1       1.200000000000        1.000000000000
 38 H     1 shells
 l=0 nsto= 1
    1       1.200000000000        1.000000000000
 39 H     1 shells
 l=0 nsto= 1
    1       1.200000000000        1.000000000000
 40 C     2 shells
 l=0 nsto= 1
    2       1.625000000000        1.000000000000
 l=1 nsto= 1
    2       1.625000000000        1.000000000000
 41 C     2 shells
 l=0 nsto= 1
    2       1.625000000000        1.000000000000
 l=1 nsto= 1
    2       1.625000000000        1.000000000000
 42 C     2 shells
 l=0 nsto= 1
    2       1.625000000000        1.000000000000
 l=1 nsto= 1
    2       1.625000000000        1.000000000000
 43 H     1 shells
 l=0 nsto= 1
    1       1.200000000000        1.000000000000
 44 H     1 shells
 l=0 nsto= 1
    1       1.200000000000        1.000000000000
 45 H     1 shells
 l=0 nsto= 1
    1       1.200000000000        1.000000000000
 46 H     1 shells
 l=0 nsto= 1
    1       1.200000000000        1.000000000000
 47 H     1 shells
 l=0 nsto= 1
    1       1.200000000000        1.000000000000
 48 H     1 shells
 l=0 nsto= 1
    1       1.200000000000        1.000000000000
 49 H     1 shells
 l=0 nsto= 1
    1       1.200000000000        1.000000000000
 50 H     1 shells
 l=0 nsto= 1
    1       1.200000000000        1.000000000000
 51 H     1 shells
 l=0 nsto= 1
    1       1.200000000000        1.000000000000
------------------------------------------------------------------------------
                           ORCA NDO INTEGRAL CALCULATION
------------------------------------------------------------------------------

--------------
NDO PARAMETERS
--------------

Gamma integral treatment              ... Mataga-Nishimoto
Nuclear repulsuion treatment          ... Direct (ZA*ZB/RAB)
Interaction factors:
s-s (sigma) =    1.0000
s-p (sigma) =    1.0000
s-d (sigma) =    1.0000
p-p (sigma) =    1.2670  p-p(pi) =    0.5850
p-d (sigma) =    1.0000  p-d(pi) =    1.0000
d-d (sigma) =    1.0000  d-d(pi) =    1.0000 d-d (delta) =    1.0000

fGamma parameter for Mataga-Nishimoto gamma integrals:    1.2000

--------------------------
Parameters for Element H :
--------------------------
 One-electron parameters (in eV)
  U(s)  =   -13.060000 Beta(s) =    12.000000 Neff(s) =     1.000000
 One-center electron repulsion parameters (in eV)
  G(s,s)=    12.850000
--------------------------
Parameters for Element C :
--------------------------
 One-electron parameters (in eV)
  U(s)  =   -50.870766 Beta(s) =    17.000000 Neff(s) =     2.000000
  U(p)  =   -41.599980 Beta(p) =    17.000000 Neff(p) =     2.000000 
 One-center electron repulsion parameters (in eV)
  G(s,s)=    11.110000
  G(s,p)=    11.110000 G(p,p)  =    11.110000
 Slater-Condon parameters (in eV)
 F2(p,p)=     4.5098 G1(s,p)=    6.8977
--------------------------
Parameters for Element S :
--------------------------
 One-electron parameters (in eV)
  U(s)  =   -69.509597 Beta(s) =    15.000000 Neff(s) =     2.000000
  U(p)  =   -60.725746 Beta(p) =    15.000000 Neff(p) =     4.000000 
 One-center electron repulsion parameters (in eV)
  G(s,s)=    10.090000
  G(s,p)=    10.090000 G(p,p)  =    10.090000
 Slater-Condon parameters (in eV)
 F2(p,p)=     4.5377 G1(s,p)=    3.0756

 Number of atoms                    ....   52
 Number of basis functions          ....  118

 Overlap integrals                  .... done
 One electron matrix                .... done
 Nuclear repulsion                  .... done
 Integral list                      .... done
 Electron-electron repulsion        .... done
-------------------------------------------------------------------------------
                                 ORCA SCF
-------------------------------------------------------------------------------

------------
SCF SETTINGS
------------
Hamiltonian:
 ZDO-Hamiltonian        Method          .... INDO


General Settings:
 Integral files         IntName         .... /Users/mattyjones/GoogleDrive/Boise/Code/MorphCT/tests/output_EZ/donor_polymer/chromophores/input_orca/pair/00021-00022
 Hartree-Fock type      HFTyp           .... RHF
 Total Charge           Charge          ....    0
 Multiplicity           Mult            ....    1
 Number of Electrons    NEL             ....  122
 Basis Dimension        Dim             ....  118
 Nuclear Repulsion      ENuc            ....    840.9565586356 Eh

Convergence Acceleration:
 DIIS                   CNVDIIS         .... on
   Start iteration      DIISMaxIt       ....    12
   Startup error        DIISStart       ....  0.200000
   # of expansion vecs  DIISMaxEq       ....     5
   Bias factor          DIISBfac        ....   1.050
   Max. coefficient     DIISMaxC        ....  10.000
 Newton-Raphson         CNVNR           .... off
 SOSCF                  CNVSOSCF        .... on
   Start iteration      SOSCFMaxIt      ....   150
   Startup grad/error   SOSCFStart      ....  0.003300
 Level Shifting         CNVShift        .... on
   Level shift para.    LevelShift      ....    0.2500
   Turn off err/grad.   ShiftErr        ....    0.0010
 Zerner damping         CNVZerner       .... off
 Static damping         CNVDamp         .... on
   Fraction old density DampFac         ....    0.7000
   Max. Damping (<1)    DampMax         ....    0.9800
   Min. Damping (>=0)   DampMin         ....    0.0000
   Turn off err/grad.   DampErr         ....    0.1000
 Fernandez-Rico         CNVRico         .... off

SCF Procedure:
 Maximum # iterations   MaxIter         ....   125
 SCF integral mode      SCFMode         .... Conventional
 Integral Buffer length BufferLength    .... 1048576
 Integral index format  IndFormat       ....     0
 Integral value format  ValFormat       ....     0
 Integral Storage       Thresh          ....  1.000e-08 Eh

Convergence Tolerance:
 Convergence Check Mode ConvCheckMode   .... Total+1el-Energy
 Energy Change          TolE            ....  1.000e-06 Eh
 1-El. energy change                    ....  1.000e-03 Eh
 Orbital Gradient       TolG            ....  5.000e-05
 Orbital Rotation angle TolX            ....  5.000e-05
 DIIS Error             TolErr          ....  1.000e-06


Diagonalization of the overlap matrix:
Smallest eigenvalue                        ... 1.677e-01
Time for diagonalization                   ...    0.003 sec
Threshold for overlap eigenvalues          ... 1.000e-08
Number of eigenvalues below threshold      ... 0
Time for construction of square roots      ...    0.001 sec
Total time needed                          ...    0.004 sec

-------------------------------
INITIAL GUESS: EXTENDED HUECKEL
-------------------------------
EHT matrix was read from disk
EHT matrix was diagonalized
Initial density was built
                      ------------------
                      INITIAL GUESS DONE
                      ------------------

 InCore treatment chosen:
   Memory dedicated               ...    1024 MB
   Memory needed                  ...      0 MB
   Number of tiny    integrals    ...       0
   Number of small   integrals    ...       0
   Number of regular integrals    ...    7153

--------------
SCF ITERATIONS
--------------
ITER       Energy         Delta-E        Max-DP      RMS-DP      [F,P]     Damp
  0     -4.5809879848   0.000000000000 0.04013235  0.00143607  0.0929700 0.7000
  1     -4.6210424043  -0.040054419504 0.03782366  0.00135669  0.0670341 0.7000
                               ***Turning on DIIS***
  2     -4.6509273695  -0.029884965273 0.09581212  0.00350316  0.0444528 0.0000
  3     -4.7361323375  -0.085204967964 0.01686443  0.00074866  0.0192507 0.0000
  4     -4.7111727206   0.024959616955 0.01157919  0.00051608  0.0065748 0.0000
  5     -4.7292762746  -0.018103554055 0.00782574  0.00034495  0.0038145 0.0000
  6     -4.7318753358  -0.002599061234 0.00623742  0.00025020  0.0022060 0.0000
                      *** Initiating the SOSCF procedure ***
                           *** Shutting down DIIS ***
                      *** Re-Reading the Fockian *** 
                      *** Removing any level shift *** 
ITER      Energy       Delta-E        Grad      Rot      Max-DP    RMS-DP
  7     -4.72890057   0.0029747682  0.003188  0.003188  0.003795  0.000144
  8     -4.72899921  -0.0000986440  0.000897  0.002557  0.001983  0.000071
  9     -4.72901710  -0.0000178925  0.000375  0.002356  0.002230  0.000075
 10     -4.72902358  -0.0000064780  0.000031  0.000082  0.000117  0.000005
                 **** Energy Check signals convergence ****
              ***Rediagonalizing the Fockian in SOSCF/NRSCF***

               *****************************************************
               *                     SUCCESS                       *
               *           SCF CONVERGED AFTER  11 CYCLES          *
               *****************************************************


----------------
TOTAL SCF ENERGY
----------------

Total Energy       :           -4.72902366 Eh            -128.68328 eV

Components:
Nuclear Repulsion  :          840.95655864 Eh           22883.59134 eV
Electronic Energy  :         -845.68558229 Eh          -23012.27462 eV

One Electron Energy:        -1602.33928206 Eh          -43601.86854 eV
Two Electron Energy:          756.65369977 Eh           20589.59393 eV


---------------
SCF CONVERGENCE
---------------

  Last Energy change         ...   -7.3334e-08  Tolerance :   1.0000e-06
  Last MAX-Density change    ...    6.5240e-05  Tolerance :   1.0000e-05
  Last RMS-Density change    ...    1.9849e-06  Tolerance :   1.0000e-06
  Last Orbital Gradient      ...    1.5179e-05  Tolerance :   5.0000e-05
  Last Orbital Rotation      ...    5.4026e-05  Tolerance :   5.0000e-05

             **** THE GBW FILE WAS UPDATED (/Users/mattyjones/GoogleDrive/Boise/Code/MorphCT/tests/output_EZ/donor_polymer/chromophores/input_orca/pair/00021-00022.gbw) ****
             **** DENSITY FILE WAS UPDATED (/Users/mattyjones/GoogleDrive/Boise/Code/MorphCT/tests/output_EZ/donor_polymer/chromophores/input_orca/pair/00021-00022.scfp.tmp) ****
             **** ENERGY FILE WAS UPDATED (/Users/mattyjones/GoogleDrive/Boise/Code/MorphCT/tests/output_EZ/donor_polymer/chromophores/input_orca/pair/00021-00022.en.tmp) ****
----------------
ORBITAL ENERGIES
----------------

  NO   OCC          E(Eh)            E(eV) 
   0   2.0000      -1.567401       -42.6512 
   1   2.0000      -1.542791       -41.9815 
   2   2.0000      -1.411745       -38.4155 
   3   2.0000      -1.399424       -38.0803 
   4   2.0000      -1.295629       -35.2559 
   5   2.0000      -1.288871       -35.0720 
   6   2.0000      -1.188720       -32.3467 
   7   2.0000      -1.167518       -31.7698 
   8   2.0000      -1.142226       -31.0816 
   9   2.0000      -1.072986       -29.1974 
  10   2.0000      -1.056818       -28.7575 
  11   2.0000      -1.040390       -28.3105 
  12   2.0000      -0.954979       -25.9863 
  13   2.0000      -0.937762       -25.5178 
  14   2.0000      -0.913453       -24.8563 
  15   2.0000      -0.889380       -24.2013 
  16   2.0000      -0.867990       -23.6192 
  17   2.0000      -0.863026       -23.4841 
  18   2.0000      -0.850457       -23.1421 
  19   2.0000      -0.818218       -22.2648 
  20   2.0000      -0.768151       -20.9025 
  21   2.0000      -0.734676       -19.9915 
  22   2.0000      -0.727623       -19.7996 
  23   2.0000      -0.710303       -19.3283 
  24   2.0000      -0.690609       -18.7924 
  25   2.0000      -0.688176       -18.7262 
  26   2.0000      -0.671541       -18.2735 
  27   2.0000      -0.659306       -17.9406 
  28   2.0000      -0.642696       -17.4886 
  29   2.0000      -0.639762       -17.4088 
  30   2.0000      -0.620932       -16.8964 
  31   2.0000      -0.618692       -16.8355 
  32   2.0000      -0.581993       -15.8368 
  33   2.0000      -0.578025       -15.7289 
  34   2.0000      -0.575148       -15.6506 
  35   2.0000      -0.567244       -15.4355 
  36   2.0000      -0.560052       -15.2398 
  37   2.0000      -0.551698       -15.0125 
  38   2.0000      -0.549692       -14.9579 
  39   2.0000      -0.545500       -14.8438 
  40   2.0000      -0.532186       -14.4815 
  41   2.0000      -0.521316       -14.1857 
  42   2.0000      -0.513956       -13.9855 
  43   2.0000      -0.507511       -13.8101 
  44   2.0000      -0.506749       -13.7893 
  45   2.0000      -0.499951       -13.6044 
  46   2.0000      -0.494799       -13.4642 
  47   2.0000      -0.488394       -13.2899 
  48   2.0000      -0.485613       -13.2142 
  49   2.0000      -0.479458       -13.0467 
  50   2.0000      -0.473322       -12.8797 
  51   2.0000      -0.472544       -12.8586 
  52   2.0000      -0.467018       -12.7082 
  53   2.0000      -0.464150       -12.6302 
  54   2.0000      -0.462121       -12.5750 
  55   2.0000      -0.439086       -11.9481 
  56   2.0000      -0.424982       -11.5644 
  57   2.0000      -0.362815        -9.8727 
  58   2.0000      -0.358445        -9.7538 
  59   2.0000      -0.328123        -8.9287 
  60   2.0000      -0.281829        -7.6690 
  61   0.0000      -0.012044        -0.3277 
  62   0.0000       0.021872         0.5952 
  63   0.0000       0.039294         1.0692 
  64   0.0000       0.064115         1.7447 
  65   0.0000       0.070496         1.9183 
  66   0.0000       0.078281         2.1301 
  67   0.0000       0.081674         2.2225 
  68   0.0000       0.088861         2.4180 
  69   0.0000       0.089219         2.4278 
  70   0.0000       0.106351         2.8940 
  71   0.0000       0.107045         2.9128 
  72   0.0000       0.118313         3.2195 
  73   0.0000       0.123623         3.3640 
  74   0.0000       0.133958         3.6452 
  75   0.0000       0.140419         3.8210 
  76   0.0000       0.147012         4.0004 
  77   0.0000       0.153370         4.1734 
  78   0.0000       0.159377         4.3369 
  79   0.0000       0.162574         4.4239 
  80   0.0000       0.166099         4.5198 
  81   0.0000       0.170948         4.6517 
  82   0.0000       0.185576         5.0498 
  83   0.0000       0.205314         5.5869 
  84   0.0000       0.208527         5.6743 
  85   0.0000       0.232229         6.3193 
  86   0.0000       0.233100         6.3430 
  87   0.0000       0.235538         6.4093 
  88   0.0000       0.236015         6.4223 
  89   0.0000       0.236993         6.4489 
  90   0.0000       0.238189         6.4814 
  91   0.0000       0.238991         6.5033 
  92   0.0000       0.239696         6.5224 
  93   0.0000       0.239782         6.5248 
  94   0.0000       0.241748         6.5783 
  95   0.0000       0.243351         6.6219 
  96   0.0000       0.244669         6.6578 
  97   0.0000       0.245611         6.6834 
  98   0.0000       0.246256         6.7010 
  99   0.0000       0.255168         6.9435 
 100   0.0000       0.256995         6.9932 
 101   0.0000       0.261186         7.1072 
 102   0.0000       0.266566         7.2536 
 103   0.0000       0.267670         7.2837 
 104   0.0000       0.279449         7.6042 
 105   0.0000       0.280978         7.6458 
 106   0.0000       0.290455         7.9037 
 107   0.0000       0.302482         8.2310 
 108   0.0000       0.305783         8.3208 
 109   0.0000       0.325881         8.8677 
 110   0.0000       0.339865         9.2482 
 111   0.0000       0.342105         9.3092 
 112   0.0000       0.349593         9.5129 
 113   0.0000       0.354309         9.6412 
 114   0.0000       0.398530        10.8445 
 115   0.0000       0.413528        11.2527 
 116   0.0000       0.427385        11.6297 
 117   0.0000       0.462254        12.5786 
-------
TIMINGS
-------

Total SCF time: 0 days 0 hours 0 min 0 sec 

Total time                  ....       0.230 sec
Sum of individual times     ....       0.126 sec  ( 54.7%)

Fock matrix formation       ....       0.048 sec  ( 20.8%)
Diagonalization             ....       0.022 sec  (  9.5%)
Density matrix formation    ....       0.005 sec  (  2.3%)
Population analysis         ....       0.000 sec  (  0.0%)
Initial guess               ....       0.003 sec  (  1.1%)
Orbital Transformation      ....       0.000 sec  (  0.0%)
Orbital Orthonormalization  ....       0.000 sec  (  0.0%)
DIIS solution               ....       0.042 sec  ( 18.4%)
SOSCF solution              ....       0.006 sec  (  2.5%)

-------------------------   --------------------
FINAL SINGLE POINT ENERGY        -4.729023655423
-------------------------   --------------------


                            ***************************************
                            *     ORCA property calculations      *
                            ***************************************

                                    ---------------------
                                    Active property flags
                                    ---------------------
   (+) Dipole Moment


------------------------------------------------------------------------------
                       ORCA ELECTRIC PROPERTIES CALCULATION
------------------------------------------------------------------------------

Dipole Moment Calculation                       ... on
Quadrupole Moment Calculation                   ... off
Polarizability Calculation                      ... off
GBWName                                         ... /Users/mattyjones/GoogleDrive/Boise/Code/MorphCT/tests/output_EZ/donor_polymer/chromophores/input_orca/pair/00021-00022.gbw
Electron density file                           ... /Users/mattyjones/GoogleDrive/Boise/Code/MorphCT/tests/output_EZ/donor_polymer/chromophores/input_orca/pair/00021-00022.scfp.tmp

-------------
DIPOLE MOMENT
-------------
                                X             Y             Z
Electronic contribution:     28.88942     -28.16036     -73.70458
Nuclear contribution   :    -15.99548      14.97730      39.61138
                        -----------------------------------------
Total Dipole Moment    :     12.89394     -13.18306     -34.09320
                        -----------------------------------------
Magnitude (a.u.)       :     38.76072
Magnitude (Debye)      :     98.52192


Timings for individual modules:

Sum of individual times         ...        0.314 sec (=   0.005 min)
STO integral calculation        ...        0.047 sec (=   0.001 min)  15.0 %
SCF iterations                  ...        0.267 sec (=   0.004 min)  85.0 %
                             ****ORCA TERMINATED NORMALLY****
TOTAL RUN TIME: 0 days 0 hours 0 minutes 0 seconds 643 msec

