
                                 *****************
                                 * O   R   C   A *
                                 *****************

           --- An Ab Initio, DFT and Semiempirical electronic structure package ---

                  #######################################################
                  #                        -***-                        #
                  #  Department of molecular theory and spectroscopy    #
                  #              Directorship: Frank Neese              #
                  # Max Planck Institute for Chemical Energy Conversion #
                  #                  D-45470 Muelheim/Ruhr              #
                  #                       Germany                       #
                  #                                                     #
                  #                  All rights reserved                #
                  #                        -***-                        #
                  #######################################################


                         Program Version 3.0.3 - RELEASE   -


 With contributions from (in alphabetic order):
   Ute Becker             : Parallelization
   Dmytro Bykov           : SCF Hessian
   Dmitry Ganyushin       : Spin-Orbit,Spin-Spin,Magnetic field MRCI
   Andreas Hansen         : Spin unrestricted coupled pair/coupled cluster methods
   Dimitrios Liakos       : Extrapolation schemes; parallel MDCI
   Robert Izsak           : Overlap fitted RIJCOSX, COSX-SCS-MP3
   Christian Kollmar      : KDIIS, OOCD, Brueckner-CCSD(T), CCSD density
   Simone Kossmann        : Meta GGA functionals, TD-DFT gradient, OOMP2, MP2 Hessian
   Taras Petrenko         : DFT Hessian,TD-DFT gradient, ASA and ECA modules, normal mode analysis, Resonance Raman, ABS, FL, XAS/XES, NRVS
   Christoph Reimann      : Effective Core Potentials
   Michael Roemelt        : Restricted open shell CIS
   Christoph Riplinger    : Improved optimizer, TS searches, QM/MM, DLPNO-CCSD
   Barbara Sandhoefer     : DKH picture change effects
   Igor Schapiro          : Molecular dynamics
   Kantharuban Sivalingam : CASSCF convergence, NEVPT2
   Boris Wezisla          : Elementary symmetry handling
   Frank Wennmohs         : Technical directorship


 We gratefully acknowledge several colleagues who have allowed us to
 interface, adapt or use parts of their codes:
   Stefan Grimme, W. Hujo, H. Kruse, T. Risthaus : VdW corrections, initial TS optimization,
                                                   DFT functionals, gCP
   Ed Valeev                                     : LibInt (2-el integral package), F12 methods
   Garnet Chan, S. Sharma, R. Olivares           : DMRG
   Ulf Ekstrom                                   : XCFun DFT Library
   Mihaly Kallay                                 : mrcc  (arbitrary order and MRCC methods)
   Andreas Klamt, Michael Diedenhofen            : otool_cosmo (COSMO solvation model)
   Frank Weinhold                                : gennbo (NPA and NBO analysis)
   Christopher J. Cramer and Donald G. Truhlar   : smd solvation model


 Your calculation uses the libint2 library for the computation of 2-el integrals
 For citations please refer to: http://libint.valeyev.net

 This ORCA versions uses:
   CBLAS   interface :  Fast vector & matrix operations
   LAPACKE interface :  Fast linear algebra routines
   SCALAPACK package :  Parallel linear algebra routines


leaving
================================================================================
                                        WARNINGS
                       Please study these warnings very carefully!
================================================================================
Now building the actual basis set

WARNING: Direct SCF is incompatible with Method<>HF and Method<>DFT
  ===> : conventional SCF is chosen

WARNING: The NDO methods need Guess=HUECKEL or Guess=HCORE or Guess=MOREAD
  ===> : Guess is set to Hueckel

WARNING: The NDO methods need %rel::SOCType==1
  ===> : %rel::SOCType is set to 1

WARNING: The NDO methods cannot have frozencore=1
  ===> : %method FrozenCore=0 end


INFO   : the flag for use of LIBINT has been found!

================================================================================
                                       INPUT FILE
================================================================================
NAME = /Users/mattyjones/GoogleDrive/Boise/Code/MorphCT/tests/output_EZ/donor_polymer/chromophores/input_orca/pair/00028-00029.inp
|  1> # ================================================================
|  2> # Orca input file made by Matty Jones
|  3> # ================================================================
|  4> ! ZINDO/S 
|  5> ! NOPOP
|  6> ! NOMOPRINT
|  7> * xyz 0   1
|  8>  C  2.18596  -3.13683  -2.65360
|  9>  C  2.93474  -2.16288  -1.99131
| 10>  C  2.14872  -1.22338  -1.25388
| 11>  C  0.77234  -1.45667  -1.33428
| 12>  S  0.60272  -2.79426  -2.29996
| 13>  H  4.07710  -2.15993  -1.96233
| 14>  C  2.82657  -0.02044  -0.40959
| 15>  C  4.13156  0.76762  -1.12584
| 16>  C  4.90894  2.04085  -0.31242
| 17>  H  5.03264  1.75757  0.79792
| 18>  H  4.26276  2.99107  -0.39855
| 19>  H  4.93708  -0.03820  -1.31026
| 20>  H  3.76893  1.18735  -2.13693
| 21>  H  2.03507  0.81714  -0.22154
| 22>  H  3.19615  -0.41511  0.62154
| 23>  C  6.36105  2.26236  -1.02217
| 24>  C  7.30125  3.59622  -0.60240
| 25>  C  7.05276  4.87865  -1.66322
| 26>  H  7.79705  5.72900  -1.41652
| 27>  H  5.96740  5.26270  -1.55330
| 28>  H  7.22737  4.51400  -2.74827
| 29>  H  7.02962  3.93257  0.46369
| 30>  H  8.41188  3.29367  -0.64622
| 31>  H  6.20378  2.30913  -2.16944
| 32>  H  7.01169  1.32844  -0.78808
| 33>  C  -0.24291  -1.05969  -0.11760
| 34>  C  -1.57442  -0.78589  0.19867
| 35>  C  -1.79536  -0.47617  1.57690
| 36>  C  -0.63244  -0.50555  2.35284
| 37>  S  0.59073  -0.90754  1.30753
| 38>  H  -2.41896  -0.77238  -0.56985
| 39>  C  -3.17036  -0.09746  2.38013
| 40>  C  -4.71577  -0.83080  2.71731
| 41>  C  -6.31987  -1.01695  2.12944
| 42>  H  -7.00970  -0.80958  3.04168
| 43>  H  -6.47247  -0.15775  1.37330
| 44>  H  -4.38875  -1.93589  2.85831
| 45>  H  -4.92956  -0.37814  3.77055
| 46>  H  -3.54225  0.89715  1.87449
| 47>  H  -2.83748  0.19914  3.46487
| 48>  C  -6.77871  -2.43724  1.48037
| 49>  C  -7.10243  -2.52660  -0.17047
| 50>  C  -7.17211  -1.05030  -0.96524
| 51>  H  -6.12911  -0.55112  -0.94694
| 52>  H  -7.94614  -0.36742  -0.44035
| 53>  H  -7.49983  -1.22613  -2.06172
| 54>  H  -6.27418  -3.16025  -0.66288
| 55>  H  -8.11889  -3.05560  -0.30779
| 56>  H  -5.95733  -3.22674  1.69849
| 57>  H  -7.74908  -2.78161  2.01898
| 58>  H  2.55223  -3.92860  -3.25572
| 59>  H  -0.54997  -0.31152  3.39166
| 60> *
| 61> 
| 62>                          ****END OF INPUT****
================================================================================

                       ****************************
                       * Single Point Calculation *
                       ****************************

---------------------------------
CARTESIAN COORDINATES (ANGSTROEM)
---------------------------------
  C      2.185960   -3.136830   -2.653600
  C      2.934740   -2.162880   -1.991310
  C      2.148720   -1.223380   -1.253880
  C      0.772340   -1.456670   -1.334280
  S      0.602720   -2.794260   -2.299960
  H      4.077100   -2.159930   -1.962330
  C      2.826570   -0.020440   -0.409590
  C      4.131560    0.767620   -1.125840
  C      4.908940    2.040850   -0.312420
  H      5.032640    1.757570    0.797920
  H      4.262760    2.991070   -0.398550
  H      4.937080   -0.038200   -1.310260
  H      3.768930    1.187350   -2.136930
  H      2.035070    0.817140   -0.221540
  H      3.196150   -0.415110    0.621540
  C      6.361050    2.262360   -1.022170
  C      7.301250    3.596220   -0.602400
  C      7.052760    4.878650   -1.663220
  H      7.797050    5.729000   -1.416520
  H      5.967400    5.262700   -1.553300
  H      7.227370    4.514000   -2.748270
  H      7.029620    3.932570    0.463690
  H      8.411880    3.293670   -0.646220
  H      6.203780    2.309130   -2.169440
  H      7.011690    1.328440   -0.788080
  C     -0.242910   -1.059690   -0.117600
  C     -1.574420   -0.785890    0.198670
  C     -1.795360   -0.476170    1.576900
  C     -0.632440   -0.505550    2.352840
  S      0.590730   -0.907540    1.307530
  H     -2.418960   -0.772380   -0.569850
  C     -3.170360   -0.097460    2.380130
  C     -4.715770   -0.830800    2.717310
  C     -6.319870   -1.016950    2.129440
  H     -7.009700   -0.809580    3.041680
  H     -6.472470   -0.157750    1.373300
  H     -4.388750   -1.935890    2.858310
  H     -4.929560   -0.378140    3.770550
  H     -3.542250    0.897150    1.874490
  H     -2.837480    0.199140    3.464870
  C     -6.778710   -2.437240    1.480370
  C     -7.102430   -2.526600   -0.170470
  C     -7.172110   -1.050300   -0.965240
  H     -6.129110   -0.551120   -0.946940
  H     -7.946140   -0.367420   -0.440350
  H     -7.499830   -1.226130   -2.061720
  H     -6.274180   -3.160250   -0.662880
  H     -8.118890   -3.055600   -0.307790
  H     -5.957330   -3.226740    1.698490
  H     -7.749080   -2.781610    2.018980
  H      2.552230   -3.928600   -3.255720
  H     -0.549970   -0.311520    3.391660

----------------------------
CARTESIAN COORDINATES (A.U.)
----------------------------
  NO LB      ZA    FRAG    MASS        X           Y           Z
   0 C     4.0000    0    12.011          4.130865739706500         -5.927749628668200         -5.014577268973433
   1 C     4.0000    0    12.011          5.545854874264054         -4.087250860535597         -3.763030547738727
   2 C     4.0000    0    12.011          4.060492338479272         -2.311853157716581         -2.369489804801179
   3 C     4.0000    0    12.011          1.459511082272740         -2.752707367499069         -2.521423785968448
   4 S     6.0000    0    32.060          1.138975735437017         -5.280386146970796         -4.346294518973522
   5 H     1.0000    0     1.008          7.704602420610335         -4.081676168440529         -3.708266284377689
   6 C     4.0000    0    12.011          5.341443198357792         -0.038626002177350         -0.774012927192805
   7 C     4.0000    0    12.011          7.807516905863687          1.450591574920631         -2.127529270613902
   8 C     4.0000    0    12.011          9.276552207851390          3.856647580413186         -0.590388238759677
   9 H     1.0000    0     1.008          9.510311330617448          3.321325961195974          1.507850276778445
  10 H     1.0000    0     1.008          8.055448974634155          5.652303147387839         -0.753150350674315
  11 H     1.0000    0     1.008          9.329729101259932         -0.072187538315792         -2.476032564231659
  12 H     1.0000    0     1.008          7.122245517919823          2.243766325111398         -4.038212467360340
  13 H     1.0000    0     1.008          3.845724963359122          1.544170813072411         -0.418649927708914
  14 H     1.0000    0     1.008          6.039848182932408         -0.784444215452051          1.174540381277415
  15 C     4.0000    0    12.011         12.020642424179778          4.275240816338084         -1.931621362310286
  16 C     4.0000    0    12.011         13.797362935292538          6.795870917330284         -1.138371023074162
  17 C     4.0000    0    12.011         13.327784888274447          9.219312403254914         -3.143030300460504
  18 H     1.0000    0     1.008         14.734289152490694         10.826241021234852         -2.676834863222131
  19 H     1.0000    0     1.008         11.276751731561676          9.945061724987371         -2.935311603819880
  20 H     1.0000    0     1.008         13.657749968518436          8.530223768520530         -5.193477642071759
  21 H     1.0000    0     1.008         13.284056625535509          7.431480302474696          0.876247111037945
  22 H     1.0000    0     1.008         15.896149471409499          6.224134275512409         -1.221178822262591
  23 H     1.0000    0     1.008         11.723445195097982          4.363623307621580         -4.099647463974120
  24 H     1.0000    0     1.008         13.250173835954300          2.510387785346348         -1.489255371620660
  25 C     4.0000    0    12.011         -0.459033375190811         -2.002523886855011         -0.222231793349139
  26 C     4.0000    0    12.011         -2.975222619768297         -1.485116871387372          0.375431891026135
  27 C     4.0000    0    12.011         -3.392738711796858         -0.899830893189282          2.979909140580422
  28 C     4.0000    0    12.011         -1.195138396137156         -0.955351047003889          4.446223236935277
  29 S     6.0000    0    32.060          1.116317919091301         -1.715002055578893          2.470873611886054
  30 H     1.0000    0     1.008         -4.571171928910151         -1.459586671318096         -1.076860437415025
  31 C     4.0000    0    12.011         -5.991112145938580         -0.184172709011965          4.497793863129989
  32 C     4.0000    0    12.011         -8.911513810561821         -1.569984472061776          5.134971720965556
  33 C     4.0000    0    12.011        -11.942823501984901         -1.921756991891217          4.024058418617271
  34 H     1.0000    0     1.008        -13.246413280947797         -1.529884483499967          5.747942187025592
  35 H     1.0000    0     1.008        -12.231195710021284         -0.298104297626077          2.595160899714055
  36 H     1.0000    0     1.008         -8.293535570246894         -3.658301925396812          5.401423105848453
  37 H     1.0000    0     1.008         -9.315518360732845         -0.714581040280982          7.125306874256776
  38 H     1.0000    0     1.008         -6.693882397882554          1.695367801047451          3.542272740774047
  39 H     1.0000    0     1.008         -5.362060110478873          0.376320062309078          6.547655389639727
  40 C     4.0000    0    12.011        -12.809905441273328         -4.605716122638231          2.797493876873003
  41 C     4.0000    0    12.011        -13.421647585346316         -4.774582049965435         -0.322141614049556
  42 C     4.0000    0    12.011        -13.553323702357948         -1.984779358457491         -1.824039253506149
  43 H     1.0000    0     1.008        -11.582339344678083         -1.041465866926680         -1.789457265255390
  44 H     1.0000    0     1.008        -15.016028421797014         -0.694323176125346         -0.832140903072223
  45 H     1.0000    0     1.008        -14.172624750966621         -2.317049904584864         -3.896086164828124
  46 H     1.0000    0     1.008        -11.856481914926039         -5.972007014724635         -1.252661659653719
  47 H     1.0000    0     1.008        -15.342478611431911         -5.774247174809776         -0.581638806759622
  48 H     1.0000    0     1.008        -11.257722189393089         -6.097654905369059          3.209680941203907
  49 H     1.0000    0     1.008        -14.643638989846494         -5.256481111376693          3.815319269864329
  50 H     1.0000    0     1.008          4.823015730777836         -7.423978089723029         -6.152419168730098
  51 H     1.0000    0     1.008         -1.039292681872671         -0.588687485239148          6.409308539375353

--------------------------------
INTERNAL COORDINATES (ANGSTROEM)
--------------------------------
 C      0   0   0   0.000000     0.000     0.000
 C      1   0   0   1.395664     0.000     0.000
 C      2   1   0   1.429787   114.101     0.000
 C      3   2   1   1.398324   113.693     0.000
 S      1   2   3   1.658030   105.480     0.000
 H      2   1   3   1.142731   123.378   175.080
 C      3   2   1   1.618447   121.817   179.659
 C      7   3   2   1.684355   116.770    40.688
 C      8   7   3   1.699143   120.099   180.135
 H      9   8   7   1.152564   109.033    42.287
 H      9   8   7   1.152339   109.000   282.721
 H      8   7   3   1.154218   106.380   300.674
 H      8   7   3   1.153246   107.427    57.839
 H      7   3   2   1.167637   109.468   159.693
 H      7   3   2   1.164295   110.060   278.741
 C      9   8   7   1.631391   107.500   162.598
 C     16   9   8   1.685042   119.719   171.249
 C     17  16   9   1.682769   111.336   265.325
 H     18  17  16   1.156686   109.317   186.276
 H     18  17  16   1.156539   109.374    65.973
 H     18  17  16   1.157926   109.175   306.077
 H     17  16   9   1.150418   109.302    25.870
 H     17  16   9   1.151936   108.698   145.771
 H     16   9   8   1.158943   108.383    48.426
 H     16   9   8   1.162040   107.555   291.979
 C      4   3   2   1.633596   121.895   149.979
 C     26   4   3   1.395676   144.033   159.044
 C     27  26   4   1.429776   114.102   180.362
 C     28  27  26   1.398331   113.693     0.000
 S     26   4   3   1.658041   110.487   339.416
 H     27  26   4   1.141952   123.737   358.430
 C     28  27  26   1.636834   130.765   179.957
 C     32  28  27   1.743494   137.918    60.191
 C     33  32  28   1.718540   143.781   271.099
 H     34  33  32   1.162347   105.436   227.052
 H     34  33  32   1.154668   105.472   340.776
 H     33  32  28   1.161054   100.030    37.083
 H     33  32  28   1.166157   100.015   147.715
 H     32  28  27   1.176105   104.496   298.138
 H     32  28  27   1.172792   105.900   186.582
 C     34  33  32   1.627590   119.609   105.953
 C     41  34  33   1.684652   119.423   248.495
 C     42  41  34   1.678087   115.178   349.924
 H     43  42  41   1.156445   109.560    65.463
 H     43  42  41   1.157997   109.383   304.880
 H     43  42  41   1.157836   109.067   185.454
 H     42  41  34   1.153247   108.032   110.881
 H     42  41  34   1.154075   108.069   228.989
 H     41  34  33   1.159979   108.622    10.798
 H     41  34  33   1.162028   108.010   127.230
 H      1   2   3   1.060001   127.259   180.000
 H     29  28  27   1.059998   127.206   180.000

---------------------------
INTERNAL COORDINATES (A.U.)
---------------------------
 C      0   0   0   0.000000     0.000     0.000
 C      1   0   0   2.637423     0.000     0.000
 C      2   1   0   2.701906   114.101     0.000
 C      3   2   1   2.642450   113.693     0.000
 S      1   2   3   3.133223   105.480     0.000
 H      2   1   3   2.159449   123.378   175.080
 C      3   2   1   3.058422   121.817   179.659
 C      7   3   2   3.182970   116.770    40.688
 C      8   7   3   3.210915   120.099   180.135
 H      9   8   7   2.178031   109.033    42.287
 H      9   8   7   2.177605   109.000   282.721
 H      8   7   3   2.181156   106.380   300.674
 H      8   7   3   2.179319   107.427    57.839
 H      7   3   2   2.206513   109.468   159.693
 H      7   3   2   2.200199   110.060   278.741
 C      9   8   7   3.082881   107.500   162.598
 C     16   9   8   3.184267   119.719   171.249
 C     17  16   9   3.179973   111.336   265.325
 H     18  17  16   2.185821   109.317   186.276
 H     18  17  16   2.185543   109.374    65.973
 H     18  17  16   2.188162   109.175   306.077
 H     17  16   9   2.173975   109.302    25.870
 H     17  16   9   2.176843   108.698   145.771
 H     16   9   8   2.190086   108.383    48.426
 H     16   9   8   2.195937   107.555   291.979
 C      4   3   2   3.087049   121.895   149.979
 C     26   4   3   2.637446   144.033   159.044
 C     27  26   4   2.701885   114.102   180.362
 C     28  27  26   2.642462   113.693     0.000
 S     26   4   3   3.133244   110.487   339.416
 H     27  26   4   2.157976   123.737   358.430
 C     28  27  26   3.093167   130.765   179.957
 C     32  28  27   3.294725   137.918    60.191
 C     33  32  28   3.247570   143.781   271.099
 H     34  33  32   2.196517   105.436   227.052
 H     34  33  32   2.182007   105.472   340.776
 H     33  32  28   2.194075   100.030    37.083
 H     33  32  28   2.203717   100.015   147.715
 H     32  28  27   2.222516   104.496   298.138
 H     32  28  27   2.216256   105.900   186.582
 C     34  33  32   3.075700   119.609   105.953
 C     41  34  33   3.183531   119.423   248.495
 C     42  41  34   3.171125   115.178   349.924
 H     43  42  41   2.185364   109.560    65.463
 H     43  42  41   2.188297   109.383   304.880
 H     43  42  41   2.187994   109.067   185.454
 H     42  41  34   2.179320   108.032   110.881
 H     42  41  34   2.180885   108.069   228.989
 H     41  34  33   2.192043   108.622    10.798
 H     41  34  33   2.195915   108.010   127.230
 H      1   2   3   2.003111   127.259   180.000
 H     29  28  27   2.003106   127.206   180.000

----------------------------
SLATER BASIS SET DIM= 118
----------------------------
  0 C     2 shells
 l=0 nsto= 1
    2       1.625000000000        1.000000000000
 l=1 nsto= 1
    2       1.625000000000        1.000000000000
  1 C     2 shells
 l=0 nsto= 1
    2       1.625000000000        1.000000000000
 l=1 nsto= 1
    2       1.625000000000        1.000000000000
  2 C     2 shells
 l=0 nsto= 1
    2       1.625000000000        1.000000000000
 l=1 nsto= 1
    2       1.625000000000        1.000000000000
  3 C     2 shells
 l=0 nsto= 1
    2       1.625000000000        1.000000000000
 l=1 nsto= 1
    2       1.625000000000        1.000000000000
  4 S     2 shells
 l=0 nsto= 1
    3       1.925000000000        1.000000000000
 l=1 nsto= 1
    3       1.925000000000        1.000000000000
  5 H     1 shells
 l=0 nsto= 1
    1       1.200000000000        1.000000000000
  6 C     2 shells
 l=0 nsto= 1
    2       1.625000000000        1.000000000000
 l=1 nsto= 1
    2       1.625000000000        1.000000000000
  7 C     2 shells
 l=0 nsto= 1
    2       1.625000000000        1.000000000000
 l=1 nsto= 1
    2       1.625000000000        1.000000000000
  8 C     2 shells
 l=0 nsto= 1
    2       1.625000000000        1.000000000000
 l=1 nsto= 1
    2       1.625000000000        1.000000000000
  9 H     1 shells
 l=0 nsto= 1
    1       1.200000000000        1.000000000000
 10 H     1 shells
 l=0 nsto= 1
    1       1.200000000000        1.000000000000
 11 H     1 shells
 l=0 nsto= 1
    1       1.200000000000        1.000000000000
 12 H     1 shells
 l=0 nsto= 1
    1       1.200000000000        1.000000000000
 13 H     1 shells
 l=0 nsto= 1
    1       1.200000000000        1.000000000000
 14 H     1 shells
 l=0 nsto= 1
    1       1.200000000000        1.000000000000
 15 C     2 shells
 l=0 nsto= 1
    2       1.625000000000        1.000000000000
 l=1 nsto= 1
    2       1.625000000000        1.000000000000
 16 C     2 shells
 l=0 nsto= 1
    2       1.625000000000        1.000000000000
 l=1 nsto= 1
    2       1.625000000000        1.000000000000
 17 C     2 shells
 l=0 nsto= 1
    2       1.625000000000        1.000000000000
 l=1 nsto= 1
    2       1.625000000000        1.000000000000
 18 H     1 shells
 l=0 nsto= 1
    1       1.200000000000        1.000000000000
 19 H     1 shells
 l=0 nsto= 1
    1       1.200000000000        1.000000000000
 20 H     1 shells
 l=0 nsto= 1
    1       1.200000000000        1.000000000000
 21 H     1 shells
 l=0 nsto= 1
    1       1.200000000000        1.000000000000
 22 H     1 shells
 l=0 nsto= 1
    1       1.200000000000        1.000000000000
 23 H     1 shells
 l=0 nsto= 1
    1       1.200000000000        1.000000000000
 24 H     1 shells
 l=0 nsto= 1
    1       1.200000000000        1.000000000000
 25 C     2 shells
 l=0 nsto= 1
    2       1.625000000000        1.000000000000
 l=1 nsto= 1
    2       1.625000000000        1.000000000000
 26 C     2 shells
 l=0 nsto= 1
    2       1.625000000000        1.000000000000
 l=1 nsto= 1
    2       1.625000000000        1.000000000000
 27 C     2 shells
 l=0 nsto= 1
    2       1.625000000000        1.000000000000
 l=1 nsto= 1
    2       1.625000000000        1.000000000000
 28 C     2 shells
 l=0 nsto= 1
    2       1.625000000000        1.000000000000
 l=1 nsto= 1
    2       1.625000000000        1.000000000000
 29 S     2 shells
 l=0 nsto= 1
    3       1.925000000000        1.000000000000
 l=1 nsto= 1
    3       1.925000000000        1.000000000000
 30 H     1 shells
 l=0 nsto= 1
    1       1.200000000000        1.000000000000
 31 C     2 shells
 l=0 nsto= 1
    2       1.625000000000        1.000000000000
 l=1 nsto= 1
    2       1.625000000000        1.000000000000
 32 C     2 shells
 l=0 nsto= 1
    2       1.625000000000        1.000000000000
 l=1 nsto= 1
    2       1.625000000000        1.000000000000
 33 C     2 shells
 l=0 nsto= 1
    2       1.625000000000        1.000000000000
 l=1 nsto= 1
    2       1.625000000000        1.000000000000
 34 H     1 shells
 l=0 nsto= 1
    1       1.200000000000        1.000000000000
 35 H     1 shells
 l=0 nsto= 1
    1       1.200000000000        1.000000000000
 36 H     1 shells
 l=0 nsto= 1
    1       1.200000000000        1.000000000000
 37 H     1 shells
 l=0 nsto= 1
    1       1.200000000000        1.000000000000
 38 H     1 shells
 l=0 nsto= 1
    1       1.200000000000        1.000000000000
 39 H     1 shells
 l=0 nsto= 1
    1       1.200000000000        1.000000000000
 40 C     2 shells
 l=0 nsto= 1
    2       1.625000000000        1.000000000000
 l=1 nsto= 1
    2       1.625000000000        1.000000000000
 41 C     2 shells
 l=0 nsto= 1
    2       1.625000000000        1.000000000000
 l=1 nsto= 1
    2       1.625000000000        1.000000000000
 42 C     2 shells
 l=0 nsto= 1
    2       1.625000000000        1.000000000000
 l=1 nsto= 1
    2       1.625000000000        1.000000000000
 43 H     1 shells
 l=0 nsto= 1
    1       1.200000000000        1.000000000000
 44 H     1 shells
 l=0 nsto= 1
    1       1.200000000000        1.000000000000
 45 H     1 shells
 l=0 nsto= 1
    1       1.200000000000        1.000000000000
 46 H     1 shells
 l=0 nsto= 1
    1       1.200000000000        1.000000000000
 47 H     1 shells
 l=0 nsto= 1
    1       1.200000000000        1.000000000000
 48 H     1 shells
 l=0 nsto= 1
    1       1.200000000000        1.000000000000
 49 H     1 shells
 l=0 nsto= 1
    1       1.200000000000        1.000000000000
 50 H     1 shells
 l=0 nsto= 1
    1       1.200000000000        1.000000000000
 51 H     1 shells
 l=0 nsto= 1
    1       1.200000000000        1.000000000000
------------------------------------------------------------------------------
                           ORCA NDO INTEGRAL CALCULATION
------------------------------------------------------------------------------

--------------
NDO PARAMETERS
--------------

Gamma integral treatment              ... Mataga-Nishimoto
Nuclear repulsuion treatment          ... Direct (ZA*ZB/RAB)
Interaction factors:
s-s (sigma) =    1.0000
s-p (sigma) =    1.0000
s-d (sigma) =    1.0000
p-p (sigma) =    1.2670  p-p(pi) =    0.5850
p-d (sigma) =    1.0000  p-d(pi) =    1.0000
d-d (sigma) =    1.0000  d-d(pi) =    1.0000 d-d (delta) =    1.0000

fGamma parameter for Mataga-Nishimoto gamma integrals:    1.2000

--------------------------
Parameters for Element H :
--------------------------
 One-electron parameters (in eV)
  U(s)  =   -13.060000 Beta(s) =    12.000000 Neff(s) =     1.000000
 One-center electron repulsion parameters (in eV)
  G(s,s)=    12.850000
--------------------------
Parameters for Element C :
--------------------------
 One-electron parameters (in eV)
  U(s)  =   -50.870766 Beta(s) =    17.000000 Neff(s) =     2.000000
  U(p)  =   -41.599980 Beta(p) =    17.000000 Neff(p) =     2.000000 
 One-center electron repulsion parameters (in eV)
  G(s,s)=    11.110000
  G(s,p)=    11.110000 G(p,p)  =    11.110000
 Slater-Condon parameters (in eV)
 F2(p,p)=     4.5098 G1(s,p)=    6.8977
--------------------------
Parameters for Element S :
--------------------------
 One-electron parameters (in eV)
  U(s)  =   -69.509597 Beta(s) =    15.000000 Neff(s) =     2.000000
  U(p)  =   -60.725746 Beta(p) =    15.000000 Neff(p) =     4.000000 
 One-center electron repulsion parameters (in eV)
  G(s,s)=    10.090000
  G(s,p)=    10.090000 G(p,p)  =    10.090000
 Slater-Condon parameters (in eV)
 F2(p,p)=     4.5377 G1(s,p)=    3.0756

 Number of atoms                    ....   52
 Number of basis functions          ....  118

 Overlap integrals                  .... done
 One electron matrix                .... done
 Nuclear repulsion                  .... done
 Integral list                      .... done
 Electron-electron repulsion        .... done
-------------------------------------------------------------------------------
                                 ORCA SCF
-------------------------------------------------------------------------------

------------
SCF SETTINGS
------------
Hamiltonian:
 ZDO-Hamiltonian        Method          .... INDO


General Settings:
 Integral files         IntName         .... /Users/mattyjones/GoogleDrive/Boise/Code/MorphCT/tests/output_EZ/donor_polymer/chromophores/input_orca/pair/00028-00029
 Hartree-Fock type      HFTyp           .... RHF
 Total Charge           Charge          ....    0
 Multiplicity           Mult            ....    1
 Number of Electrons    NEL             ....  122
 Basis Dimension        Dim             ....  118
 Nuclear Repulsion      ENuc            ....    827.3276880858 Eh

Convergence Acceleration:
 DIIS                   CNVDIIS         .... on
   Start iteration      DIISMaxIt       ....    12
   Startup error        DIISStart       ....  0.200000
   # of expansion vecs  DIISMaxEq       ....     5
   Bias factor          DIISBfac        ....   1.050
   Max. coefficient     DIISMaxC        ....  10.000
 Newton-Raphson         CNVNR           .... off
 SOSCF                  CNVSOSCF        .... on
   Start iteration      SOSCFMaxIt      ....   150
   Startup grad/error   SOSCFStart      ....  0.003300
 Level Shifting         CNVShift        .... on
   Level shift para.    LevelShift      ....    0.2500
   Turn off err/grad.   ShiftErr        ....    0.0010
 Zerner damping         CNVZerner       .... off
 Static damping         CNVDamp         .... on
   Fraction old density DampFac         ....    0.7000
   Max. Damping (<1)    DampMax         ....    0.9800
   Min. Damping (>=0)   DampMin         ....    0.0000
   Turn off err/grad.   DampErr         ....    0.1000
 Fernandez-Rico         CNVRico         .... off

SCF Procedure:
 Maximum # iterations   MaxIter         ....   125
 SCF integral mode      SCFMode         .... Conventional
 Integral Buffer length BufferLength    .... 1048576
 Integral index format  IndFormat       ....     0
 Integral value format  ValFormat       ....     0
 Integral Storage       Thresh          ....  1.000e-08 Eh

Convergence Tolerance:
 Convergence Check Mode ConvCheckMode   .... Total+1el-Energy
 Energy Change          TolE            ....  1.000e-06 Eh
 1-El. energy change                    ....  1.000e-03 Eh
 Orbital Gradient       TolG            ....  5.000e-05
 Orbital Rotation angle TolX            ....  5.000e-05
 DIIS Error             TolErr          ....  1.000e-06


Diagonalization of the overlap matrix:
Smallest eigenvalue                        ... 1.672e-01
Time for diagonalization                   ...    0.003 sec
Threshold for overlap eigenvalues          ... 1.000e-08
Number of eigenvalues below threshold      ... 0
Time for construction of square roots      ...    0.001 sec
Total time needed                          ...    0.004 sec

-------------------------------
INITIAL GUESS: EXTENDED HUECKEL
-------------------------------
EHT matrix was read from disk
EHT matrix was diagonalized
Initial density was built
                      ------------------
                      INITIAL GUESS DONE
                      ------------------

 InCore treatment chosen:
   Memory dedicated               ...    1024 MB
   Memory needed                  ...      0 MB
   Number of tiny    integrals    ...       0
   Number of small   integrals    ...       0
   Number of regular integrals    ...    7153

--------------
SCF ITERATIONS
--------------
ITER       Energy         Delta-E        Max-DP      RMS-DP      [F,P]     Damp
  0     -6.9341974337   0.000000000000 0.04274287  0.00144779  0.1072376 0.7000
  1     -6.9745742883  -0.040376854590 0.04239193  0.00137095  0.0736297 0.7000
                               ***Turning on DIIS***
  2     -7.0047112338  -0.030136945555 0.11366919  0.00354739  0.0479133 0.0000
  3     -7.0893857837  -0.084674549911 0.02167457  0.00076435  0.0202565 0.0000
  4     -7.0658273117   0.023558472084 0.01541084  0.00053057  0.0082037 0.0000
  5     -7.0824730559  -0.016645744235 0.01074650  0.00035721  0.0048158 0.0000
  6     -7.0867291539  -0.004256098019 0.00849539  0.00026525  0.0030625 0.0000
                      *** Initiating the SOSCF procedure ***
                           *** Shutting down DIIS ***
                      *** Re-Reading the Fockian *** 
                      *** Removing any level shift *** 
ITER      Energy       Delta-E        Grad      Rot      Max-DP    RMS-DP
  7     -7.08358031   0.0031488405  0.002979  0.002979  0.005252  0.000155
  8     -7.08346281   0.0001175060  0.000872  0.002533  0.002704  0.000077
  9     -7.08348298  -0.0000201734  0.000374  0.002459  0.003127  0.000083
 10     -7.08349064  -0.0000076632  0.000041  0.000130  0.000259  0.000007
                 **** Energy Check signals convergence ****
              ***Rediagonalizing the Fockian in SOSCF/NRSCF***

               *****************************************************
               *                     SUCCESS                       *
               *           SCF CONVERGED AFTER  11 CYCLES          *
               *****************************************************


----------------
TOTAL SCF ENERGY
----------------

Total Energy       :           -7.08349075 Eh            -192.75158 eV

Components:
Nuclear Repulsion  :          827.32768809 Eh           22512.73092 eV
Electronic Energy  :         -834.41117884 Eh          -22705.48250 eV

One Electron Energy:        -1579.87528989 Eh          -42990.59224 eV
Two Electron Energy:          745.46411105 Eh           20285.10974 eV


---------------
SCF CONVERGENCE
---------------

  Last Energy change         ...   -1.0996e-07  Tolerance :   1.0000e-06
  Last MAX-Density change    ...    8.4981e-05  Tolerance :   1.0000e-05
  Last RMS-Density change    ...    2.4721e-06  Tolerance :   1.0000e-06
  Last Orbital Gradient      ...    1.8733e-05  Tolerance :   5.0000e-05
  Last Orbital Rotation      ...    5.1034e-05  Tolerance :   5.0000e-05

             **** THE GBW FILE WAS UPDATED (/Users/mattyjones/GoogleDrive/Boise/Code/MorphCT/tests/output_EZ/donor_polymer/chromophores/input_orca/pair/00028-00029.gbw) ****
             **** DENSITY FILE WAS UPDATED (/Users/mattyjones/GoogleDrive/Boise/Code/MorphCT/tests/output_EZ/donor_polymer/chromophores/input_orca/pair/00028-00029.scfp.tmp) ****
             **** ENERGY FILE WAS UPDATED (/Users/mattyjones/GoogleDrive/Boise/Code/MorphCT/tests/output_EZ/donor_polymer/chromophores/input_orca/pair/00028-00029.en.tmp) ****
----------------
ORBITAL ENERGIES
----------------

  NO   OCC          E(Eh)            E(eV) 
   0   2.0000      -1.578968       -42.9659 
   1   2.0000      -1.538523       -41.8653 
   2   2.0000      -1.405979       -38.2586 
   3   2.0000      -1.395519       -37.9740 
   4   2.0000      -1.302960       -35.4553 
   5   2.0000      -1.278452       -34.7885 
   6   2.0000      -1.214681       -33.0532 
   7   2.0000      -1.178060       -32.0566 
   8   2.0000      -1.136989       -30.9391 
   9   2.0000      -1.080670       -29.4065 
  10   2.0000      -1.050638       -28.5893 
  11   2.0000      -1.025275       -27.8991 
  12   2.0000      -0.986390       -26.8410 
  13   2.0000      -0.955190       -25.9920 
  14   2.0000      -0.920676       -25.0529 
  15   2.0000      -0.892543       -24.2873 
  16   2.0000      -0.867812       -23.6144 
  17   2.0000      -0.835500       -22.7351 
  18   2.0000      -0.825975       -22.4759 
  19   2.0000      -0.795497       -21.6466 
  20   2.0000      -0.767751       -20.8916 
  21   2.0000      -0.742859       -20.2142 
  22   2.0000      -0.725992       -19.7552 
  23   2.0000      -0.715253       -19.4630 
  24   2.0000      -0.707224       -19.2445 
  25   2.0000      -0.690624       -18.7928 
  26   2.0000      -0.666125       -18.1262 
  27   2.0000      -0.665304       -18.1038 
  28   2.0000      -0.641089       -17.4449 
  29   2.0000      -0.639155       -17.3923 
  30   2.0000      -0.629461       -17.1285 
  31   2.0000      -0.618437       -16.8285 
  32   2.0000      -0.582890       -15.8612 
  33   2.0000      -0.577396       -15.7117 
  34   2.0000      -0.568011       -15.4564 
  35   2.0000      -0.567541       -15.4436 
  36   2.0000      -0.563889       -15.3442 
  37   2.0000      -0.554281       -15.0828 
  38   2.0000      -0.542434       -14.7604 
  39   2.0000      -0.533395       -14.5144 
  40   2.0000      -0.532449       -14.4887 
  41   2.0000      -0.522796       -14.2260 
  42   2.0000      -0.512764       -13.9530 
  43   2.0000      -0.507456       -13.8086 
  44   2.0000      -0.502595       -13.6763 
  45   2.0000      -0.495112       -13.4727 
  46   2.0000      -0.492083       -13.3903 
  47   2.0000      -0.491179       -13.3657 
  48   2.0000      -0.485109       -13.2005 
  49   2.0000      -0.479039       -13.0353 
  50   2.0000      -0.475840       -12.9483 
  51   2.0000      -0.470156       -12.7936 
  52   2.0000      -0.465944       -12.6790 
  53   2.0000      -0.454380       -12.3643 
  54   2.0000      -0.440457       -11.9854 
  55   2.0000      -0.429821       -11.6960 
  56   2.0000      -0.428113       -11.6495 
  57   2.0000      -0.360337        -9.8053 
  58   2.0000      -0.355841        -9.6829 
  59   2.0000      -0.322114        -8.7652 
  60   2.0000      -0.284520        -7.7422 
  61   0.0000      -0.016020        -0.4359 
  62   0.0000       0.014790         0.4025 
  63   0.0000       0.037207         1.0124 
  64   0.0000       0.051376         1.3980 
  65   0.0000       0.068162         1.8548 
  66   0.0000       0.073774         2.0075 
  67   0.0000       0.082482         2.2444 
  68   0.0000       0.089581         2.4376 
  69   0.0000       0.092120         2.5067 
  70   0.0000       0.101637         2.7657 
  71   0.0000       0.105636         2.8745 
  72   0.0000       0.118726         3.2307 
  73   0.0000       0.121435         3.3044 
  74   0.0000       0.131151         3.5688 
  75   0.0000       0.141361         3.8466 
  76   0.0000       0.147982         4.0268 
  77   0.0000       0.154653         4.2083 
  78   0.0000       0.160032         4.3547 
  79   0.0000       0.162217         4.4141 
  80   0.0000       0.169764         4.6195 
  81   0.0000       0.173481         4.7207 
  82   0.0000       0.187780         5.1098 
  83   0.0000       0.202640         5.5141 
  84   0.0000       0.208704         5.6791 
  85   0.0000       0.220830         6.0091 
  86   0.0000       0.229937         6.2569 
  87   0.0000       0.232442         6.3251 
  88   0.0000       0.233453         6.3526 
  89   0.0000       0.234264         6.3746 
  90   0.0000       0.237394         6.4598 
  91   0.0000       0.238995         6.5034 
  92   0.0000       0.239872         6.5272 
  93   0.0000       0.240085         6.5330 
  94   0.0000       0.240445         6.5428 
  95   0.0000       0.241836         6.5807 
  96   0.0000       0.242526         6.5995 
  97   0.0000       0.242828         6.6077 
  98   0.0000       0.244392         6.6502 
  99   0.0000       0.245210         6.6725 
 100   0.0000       0.254116         6.9149 
 101   0.0000       0.256621         6.9830 
 102   0.0000       0.259905         7.0724 
 103   0.0000       0.261756         7.1228 
 104   0.0000       0.279640         7.6094 
 105   0.0000       0.286419         7.7939 
 106   0.0000       0.288944         7.8626 
 107   0.0000       0.298262         8.1161 
 108   0.0000       0.305662         8.3175 
 109   0.0000       0.315678         8.5900 
 110   0.0000       0.336952         9.1689 
 111   0.0000       0.344169         9.3653 
 112   0.0000       0.350874         9.5478 
 113   0.0000       0.367525        10.0009 
 114   0.0000       0.405231        11.0269 
 115   0.0000       0.406267        11.0551 
 116   0.0000       0.422814        11.5053 
 117   0.0000       0.473112        12.8740 
-------
TIMINGS
-------

Total SCF time: 0 days 0 hours 0 min 0 sec 

Total time                  ....       0.215 sec
Sum of individual times     ....       0.101 sec  ( 47.1%)

Fock matrix formation       ....       0.051 sec  ( 23.7%)
Diagonalization             ....       0.021 sec  (  9.7%)
Density matrix formation    ....       0.005 sec  (  2.2%)
Population analysis         ....       0.000 sec  (  0.0%)
Initial guess               ....       0.002 sec  (  1.1%)
Orbital Transformation      ....       0.000 sec  (  0.0%)
Orbital Orthonormalization  ....       0.000 sec  (  0.0%)
DIIS solution               ....       0.015 sec  (  7.2%)
SOSCF solution              ....       0.007 sec  (  3.2%)

-------------------------   --------------------
FINAL SINGLE POINT ENERGY        -7.083490753868
-------------------------   --------------------


                            ***************************************
                            *     ORCA property calculations      *
                            ***************************************

                                    ---------------------
                                    Active property flags
                                    ---------------------
   (+) Dipole Moment


------------------------------------------------------------------------------
                       ORCA ELECTRIC PROPERTIES CALCULATION
------------------------------------------------------------------------------

Dipole Moment Calculation                       ... on
Quadrupole Moment Calculation                   ... off
Polarizability Calculation                      ... off
GBWName                                         ... /Users/mattyjones/GoogleDrive/Boise/Code/MorphCT/tests/output_EZ/donor_polymer/chromophores/input_orca/pair/00028-00029.gbw
Electron density file                           ... /Users/mattyjones/GoogleDrive/Boise/Code/MorphCT/tests/output_EZ/donor_polymer/chromophores/input_orca/pair/00028-00029.scfp.tmp

-------------
DIPOLE MOMENT
-------------
                                X             Y             Z
Electronic contribution:     28.69159    -100.97151     -24.30597
Nuclear contribution   :    -16.40065      54.25376      13.36167
                        -----------------------------------------
Total Dipole Moment    :     12.29094     -46.71775     -10.94430
                        -----------------------------------------
Magnitude (a.u.)       :     49.53174
Magnitude (Debye)      :    125.89968


Timings for individual modules:

Sum of individual times         ...        0.308 sec (=   0.005 min)
STO integral calculation        ...        0.049 sec (=   0.001 min)  15.8 %
SCF iterations                  ...        0.259 sec (=   0.004 min)  84.2 %
                             ****ORCA TERMINATED NORMALLY****
TOTAL RUN TIME: 0 days 0 hours 0 minutes 0 seconds 635 msec

