
                                 *****************
                                 * O   R   C   A *
                                 *****************

           --- An Ab Initio, DFT and Semiempirical electronic structure package ---

                  #######################################################
                  #                        -***-                        #
                  #  Department of molecular theory and spectroscopy    #
                  #              Directorship: Frank Neese              #
                  # Max Planck Institute for Chemical Energy Conversion #
                  #                  D-45470 Muelheim/Ruhr              #
                  #                       Germany                       #
                  #                                                     #
                  #                  All rights reserved                #
                  #                        -***-                        #
                  #######################################################


                         Program Version 4.0.1.2 - RELEASE -


 With contributions from (in alphabetic order):
   Daniel Aravena         : Magnetic Properties
   Michael Atanasov       : Ab Initio Ligand Field Theory
   Ute Becker             : Parallelization
   Martin Brehm           : Molecular dynamics
   Dmytro Bykov           : SCF Hessian
   Vijay G. Chilkuri      : MRCI spin determinant printing
   Dipayan Datta          : RHF DLPNO-CCSD density
   Achintya Kumar Dutta   : EOM-CC, STEOM-CC
   Dmitry Ganyushin       : Spin-Orbit,Spin-Spin,Magnetic field MRCI
   Yang Guo               : DLPNO-NEVPT2, CIM, IAO-localization
   Andreas Hansen         : Spin unrestricted coupled pair/coupled cluster methods
   Lee Huntington         : MR-EOM, pCC
   Robert Izsak           : Overlap fitted RIJCOSX, COSX-SCS-MP3, EOM
   Christian Kollmar      : KDIIS, OOCD, Brueckner-CCSD(T), CCSD density
   Simone Kossmann        : Meta GGA functionals, TD-DFT gradient, OOMP2, MP2 Hessian
   Martin Krupicka        : AUTO-CI
   Dagmar Lenk            : GEPOL surface
   Dimitrios Liakos       : Extrapolation schemes; parallel MDCI
   Dimitrios Manganas     : ROCIS; embedding schemes
   Dimitrios Pantazis     : SARC Basis sets
   Taras Petrenko         : DFT Hessian,TD-DFT gradient, ASA, ECA, R-Raman, ABS, FL, XAS/XES, NRVS
   Peter Pinski           : DLPNO-MP2
   Christoph Reimann      : Effective Core Potentials
   Marius Retegan         : Local ZFS, SOC
   Christoph Riplinger    : Optimizer, TS searches, QM/MM, DLPNO-CCSD(T), (RO)-DLPNO pert. Triples
   Tobias Risthaus        : Range-separated hybrids, TD-DFT gradient, RPA, STAB
   Michael Roemelt        : Restricted open shell CIS
   Masaaki Saitow         : Open-shell DLPNO
   Barbara Sandhoefer     : DKH picture change effects
   Kantharuban Sivalingam : CASSCF convergence, NEVPT2, FIC-MRCI
   Georgi Stoychev        : AutoAux
   Boris Wezisla          : Elementary symmetry handling
   Frank Wennmohs         : Technical directorship


 We gratefully acknowledge several colleagues who have allowed us to
 interface, adapt or use parts of their codes:
   Stefan Grimme, W. Hujo, H. Kruse,             : VdW corrections, initial TS optimization,
                  C. Bannwarth                     DFT functionals, gCP, sTDA/sTD-DF
   Ed Valeev                                     : LibInt (2-el integral package), F12 methods
   Garnet Chan, S. Sharma, J. Yang, R. Olivares  : DMRG
   Ulf Ekstrom                                   : XCFun DFT Library
   Mihaly Kallay                                 : mrcc  (arbitrary order and MRCC methods)
   Andreas Klamt, Michael Diedenhofen            : otool_cosmo (COSMO solvation model)
   Jiri Pittner, Ondrej Demel                    : Mk-CCSD
   Frank Weinhold                                : gennbo (NPA and NBO analysis)
   Christopher J. Cramer and Donald G. Truhlar   : smd solvation model


 Your calculation uses the libint2 library for the computation of 2-el integrals
 For citations please refer to: http://libint.valeyev.net

 This ORCA versions uses:
   CBLAS   interface :  Fast vector & matrix operations
   LAPACKE interface :  Fast linear algebra routines
   SCALAPACK package :  Parallel linear algebra routines


leaving
Your calculation utilizes the basis: def2-SVP
   F. Weigend and R. Ahlrichs, Phys. Chem. Chem. Phys. 7, 3297 (2005).

================================================================================
                                        WARNINGS
                       Please study these warnings very carefully!
================================================================================

Warning: TCutStore was < 0. Adjusted to Thresh (uncritical)

WARNING: Direct SCF is incompatible with Method<>HF and Method<>DFT
  ===> : conventional SCF is chosen

WARNING: The NDO methods need Guess=HUECKEL or Guess=HCORE or Guess=MOREAD
  ===> : Guess is set to Hueckel

WARNING: The NDO methods need %rel::SOCType==1
  ===> : %rel::SOCType is set to 1

WARNING: The NDO methods cannot have frozencore=1
  ===> : %method FrozenCore=0 end

INFO   : the flag for use of LIBINT has been found!

================================================================================
                                       INPUT FILE
================================================================================
NAME = /home/mattyjones/Software/morphct/tests/output_EZ/donor_polymer/chromophores/input_orca/single/00004.inp
|  1> # ================================================================
|  2> # Orca input file made by Matty Jones
|  3> # ================================================================
|  4> ! ZINDO/S 
|  5> ! NOPOP
|  6> ! NOMOPRINT
|  7> * xyz 0   1
|  8>  C  2.29898  3.79658  1.44833
|  9>  C  1.80317  2.60289  0.92186
| 10>  C  2.39543  1.42771  1.48082
| 11>  C  3.36380  1.69480  2.45358
| 12>  S  3.43524  3.34765  2.56925
| 13>  H  1.05465  2.53541  0.06097
| 14>  C  1.93949  -0.05285  0.99807
| 15>  C  0.28100  -0.53973  1.09912
| 16>  C  -1.19672  -0.53680  0.19936
| 17>  H  -1.67840  -1.55592  0.49629
| 18>  H  -1.81237  0.29875  0.72984
| 19>  H  0.40894  -1.67892  1.30159
| 20>  H  -0.04373  -0.02834  2.08866
| 21>  H  2.54469  -0.87935  1.54479
| 22>  H  2.18647  -0.15318  -0.14185
| 23>  C  -1.50827  -0.35414  -1.39440
| 24>  C  -1.71411  -1.79336  -2.27631
| 25>  C  -3.27333  -2.44495  -2.28483
| 26>  H  -3.35526  -3.23941  -1.44668
| 27>  H  -3.47447  -2.94415  -3.30971
| 28>  H  -4.04914  -1.60733  -2.10235
| 29>  H  -1.43068  -1.56782  -3.37103
| 30>  H  -0.99628  -2.58359  -1.84682
| 31>  H  -2.48279  0.25799  -1.52124
| 32>  H  -0.63936  0.22707  -1.88623
| 33>  H  2.01005  4.78232  1.18673
| 34>  H  3.93302  0.98867  3.00219
| 35> *
| 36> 
| 37>                          ****END OF INPUT****
================================================================================

                       ****************************
                       * Single Point Calculation *
                       ****************************

---------------------------------
CARTESIAN COORDINATES (ANGSTROEM)
---------------------------------
  C      2.298980    3.796580    1.448330
  C      1.803170    2.602890    0.921860
  C      2.395430    1.427710    1.480820
  C      3.363800    1.694800    2.453580
  S      3.435240    3.347650    2.569250
  H      1.054650    2.535410    0.060970
  C      1.939490   -0.052850    0.998070
  C      0.281000   -0.539730    1.099120
  C     -1.196720   -0.536800    0.199360
  H     -1.678400   -1.555920    0.496290
  H     -1.812370    0.298750    0.729840
  H      0.408940   -1.678920    1.301590
  H     -0.043730   -0.028340    2.088660
  H      2.544690   -0.879350    1.544790
  H      2.186470   -0.153180   -0.141850
  C     -1.508270   -0.354140   -1.394400
  C     -1.714110   -1.793360   -2.276310
  C     -3.273330   -2.444950   -2.284830
  H     -3.355260   -3.239410   -1.446680
  H     -3.474470   -2.944150   -3.309710
  H     -4.049140   -1.607330   -2.102350
  H     -1.430680   -1.567820   -3.371030
  H     -0.996280   -2.583590   -1.846820
  H     -2.482790    0.257990   -1.521240
  H     -0.639360    0.227070   -1.886230
  H      2.010050    4.782320    1.186730
  H      3.933020    0.988670    3.002190

----------------------------
CARTESIAN COORDINATES (A.U.)
----------------------------
  NO LB      ZA    FRAG     MASS         X           Y           Z
   0 C     4.0000    0    12.011    4.344443    7.174496    2.736947
   1 C     4.0000    0    12.011    3.407497    4.918749    1.742063
   2 C     4.0000    0    12.011    4.526707    2.697981    2.798344
   3 C     4.0000    0    12.011    6.356661    3.202708    4.636594
   4 S     6.0000    0    32.060    6.491663    6.326142    4.855179
   5 H     1.0000    0     1.008    1.993000    4.791231    0.115217
   6 C     4.0000    0    12.011    3.665105   -0.099872    1.886079
   7 C     4.0000    0    12.011    0.531013   -1.019942    2.077036
   8 C     4.0000    0    12.011   -2.261473   -1.014405    0.376736
   9 H     1.0000    0     1.008   -3.171716   -2.940263    0.937852
  10 H     1.0000    0     1.008   -3.424883    0.564556    1.379198
  11 H     1.0000    0     1.008    0.772785   -3.172699    2.459649
  12 H     1.0000    0     1.008   -0.082638   -0.053555    3.946995
  13 H     1.0000    0     1.008    4.808767   -1.661731    2.919230
  14 H     1.0000    0     1.008    4.131830   -0.289468   -0.268058
  15 C     4.0000    0    12.011   -2.850217   -0.669228   -2.635034
  16 C     4.0000    0    12.011   -3.239198   -3.388959   -4.301602
  17 C     4.0000    0    12.011   -6.185697   -4.620286   -4.317703
  18 H     1.0000    0     1.008   -6.340523   -6.121598   -2.733829
  19 H     1.0000    0     1.008   -6.565797   -5.563637   -6.254445
  20 H     1.0000    0     1.008   -7.651766   -3.037414   -3.972866
  21 H     1.0000    0     1.008   -2.703593   -2.962750   -6.370323
  22 H     1.0000    0     1.008   -1.882696   -4.882278   -3.489984
  23 H     1.0000    0     1.008   -4.691793    0.487530   -2.874727
  24 H     1.0000    0     1.008   -1.208215    0.429100   -3.564458
  25 H     1.0000    0     1.008    3.798444    9.037275    2.242595
  26 H     1.0000    0     1.008    7.432331    1.868316    5.673317

--------------------------------
INTERNAL COORDINATES (ANGSTROEM)
--------------------------------
 C      0   0   0     0.000000000000     0.00000000     0.00000000
 C      1   0   0     1.395669743564     0.00000000     0.00000000
 C      2   1   0     1.429774884938   114.10175245     0.00000000
 C      3   2   1     1.398334560325   113.69268502     0.00000000
 S      1   2   3     1.658036965481   105.47964402     0.00000000
 H      2   1   3     1.142789277557   124.56599412   184.86452908
 C      3   2   1     1.622648070193   121.14855680   179.65890785
 C      7   3   2     1.731430713890   120.55480098   303.40865551
 C      8   7   3     1.730096251918   141.93534547    89.23732264
 H      9   8   7     1.165670889102   102.64955114   143.58449079
 H      9   8   7     1.165580437121   102.45451561   254.47650569
 H      8   7   3     1.164094755851   100.37329461   211.94941473
 H      8   7   3     1.160240801127   101.18185997   323.13092303
 H      7   3   2     1.161151173793   111.28050936   178.76850073
 H      7   3   2     1.170676230091   107.97544227    61.97660267
 C      9   8   7     1.634166153027   132.08489288    18.70063386
 C     16   9   8     1.700438050062   115.73989728    96.92577405
 C     17  16   9     1.689913940679   116.14526991    86.19604676
 H     18  17  16     1.157745498372   109.04017995   265.25841960
 H     18  17  16     1.157599651866   109.33291310   145.64780355
 H     18  17  16     1.156195213145   109.81461554    25.35626362
 H     17  16   9     1.153088346529   107.28231816   206.17706315
 H     17  16   9     1.150741075090   108.18827140   324.33295088
 H     16   9   8     1.157791325283   109.05103840   217.30062794
 H     16   9   8     1.155294941173   109.14962247   335.90600339
 H      1   2   3     1.059999270047   127.26030209   179.99987368
 H      4   3   2     1.060001847829   127.20591416   179.99934002

---------------------------
INTERNAL COORDINATES (A.U.)
---------------------------
 C      0   0   0     0.000000000000     0.00000000     0.00000000
 C      1   0   0     2.637433588736     0.00000000     0.00000000
 C      2   1   0     2.701882965692   114.10175245     0.00000000
 C      3   2   1     2.642469362612   113.69268502     0.00000000
 S      1   2   3     3.133235784676   105.47964402     0.00000000
 H      2   1   3     2.159558763365   124.56599412   184.86452908
 C      3   2   1     3.066360464400   121.14855680   179.65890785
 C      7   3   2     3.271929869111   120.55480098   303.40865551
 C      8   7   3     3.269408101448   141.93534547    89.23732264
 H      9   8   7     2.202798742687   102.64955114   143.58449079
 H      9   8   7     2.202627813216   102.45451561   254.47650569
 H      8   7   3     2.199820282492   100.37329461   211.94941473
 H      8   7   3     2.192537363532   101.18185997   323.13092303
 H      7   3   2     2.194257718549   111.28050936   178.76850073
 H      7   3   2     2.212257466363   107.97544227    61.97660267
 C      9   8   7     3.088126486545   132.08489288    18.70063386
 C     16   9   8     3.213362222317   115.73989728    96.92577405
 C     17  16   9     3.193474537778   116.14526991    86.19604676
 H     18  17  16     2.187821924703   109.04017995   265.25841960
 H     18  17  16     2.187546314749   109.33291310   145.64780355
 H     18  17  16     2.184892310195   109.81461554    25.35626362
 H     17  16   9     2.179021183155   107.28231816   206.17706315
 H     17  16   9     2.174585482975   108.18827140   324.33295088
 H     16   9   8     2.187908525014   109.05103840   217.30062794
 H     16   9   8     2.183191042722   109.14962247   335.90600339
 H      1   2   3     2.003108322545   127.26030209   179.99987368
 H      4   3   2     2.003113193846   127.20591416   179.99934002

----------------------------
SLATER BASIS SET DIM=  60
----------------------------
  0 C     2 shells
 l=0 nsto= 1
    2       1.625000000000        1.000000000000
 l=1 nsto= 1
    2       1.625000000000        1.000000000000
  1 C     2 shells
 l=0 nsto= 1
    2       1.625000000000        1.000000000000
 l=1 nsto= 1
    2       1.625000000000        1.000000000000
  2 C     2 shells
 l=0 nsto= 1
    2       1.625000000000        1.000000000000
 l=1 nsto= 1
    2       1.625000000000        1.000000000000
  3 C     2 shells
 l=0 nsto= 1
    2       1.625000000000        1.000000000000
 l=1 nsto= 1
    2       1.625000000000        1.000000000000
  4 S     2 shells
 l=0 nsto= 1
    3       1.925000000000        1.000000000000
 l=1 nsto= 1
    3       1.925000000000        1.000000000000
  5 H     1 shells
 l=0 nsto= 1
    1       1.200000000000        1.000000000000
  6 C     2 shells
 l=0 nsto= 1
    2       1.625000000000        1.000000000000
 l=1 nsto= 1
    2       1.625000000000        1.000000000000
  7 C     2 shells
 l=0 nsto= 1
    2       1.625000000000        1.000000000000
 l=1 nsto= 1
    2       1.625000000000        1.000000000000
  8 C     2 shells
 l=0 nsto= 1
    2       1.625000000000        1.000000000000
 l=1 nsto= 1
    2       1.625000000000        1.000000000000
  9 H     1 shells
 l=0 nsto= 1
    1       1.200000000000        1.000000000000
 10 H     1 shells
 l=0 nsto= 1
    1       1.200000000000        1.000000000000
 11 H     1 shells
 l=0 nsto= 1
    1       1.200000000000        1.000000000000
 12 H     1 shells
 l=0 nsto= 1
    1       1.200000000000        1.000000000000
 13 H     1 shells
 l=0 nsto= 1
    1       1.200000000000        1.000000000000
 14 H     1 shells
 l=0 nsto= 1
    1       1.200000000000        1.000000000000
 15 C     2 shells
 l=0 nsto= 1
    2       1.625000000000        1.000000000000
 l=1 nsto= 1
    2       1.625000000000        1.000000000000
 16 C     2 shells
 l=0 nsto= 1
    2       1.625000000000        1.000000000000
 l=1 nsto= 1
    2       1.625000000000        1.000000000000
 17 C     2 shells
 l=0 nsto= 1
    2       1.625000000000        1.000000000000
 l=1 nsto= 1
    2       1.625000000000        1.000000000000
 18 H     1 shells
 l=0 nsto= 1
    1       1.200000000000        1.000000000000
 19 H     1 shells
 l=0 nsto= 1
    1       1.200000000000        1.000000000000
 20 H     1 shells
 l=0 nsto= 1
    1       1.200000000000        1.000000000000
 21 H     1 shells
 l=0 nsto= 1
    1       1.200000000000        1.000000000000
 22 H     1 shells
 l=0 nsto= 1
    1       1.200000000000        1.000000000000
 23 H     1 shells
 l=0 nsto= 1
    1       1.200000000000        1.000000000000
 24 H     1 shells
 l=0 nsto= 1
    1       1.200000000000        1.000000000000
 25 H     1 shells
 l=0 nsto= 1
    1       1.200000000000        1.000000000000
 26 H     1 shells
 l=0 nsto= 1
    1       1.200000000000        1.000000000000
------------------------------------------------------------------------------
                           ORCA NDO INTEGRAL CALCULATION
------------------------------------------------------------------------------

--------------
NDO PARAMETERS
--------------

Gamma integral treatment              ... Mataga-Nishimoto
Nuclear repulsuion treatment          ... Direct (ZA*ZB/RAB)
Interaction factors:
s-s (sigma) =    1.0000
s-p (sigma) =    1.0000
s-d (sigma) =    1.0000
p-p (sigma) =    1.2670  p-p(pi) =    0.5850
p-d (sigma) =    1.0000  p-d(pi) =    1.0000
d-d (sigma) =    1.0000  d-d(pi) =    1.0000 d-d (delta) =    1.0000

fGamma parameter for Mataga-Nishimoto gamma integrals:    1.2000

--------------------------
Parameters for Element H :
--------------------------
 One-electron parameters (in eV)
  U(s)  =   -13.060000 Beta(s) =    12.000000 Neff(s) =     1.000000
 One-center electron repulsion parameters (in eV)
  G(s,s)=    12.850000
--------------------------
Parameters for Element C :
--------------------------
 One-electron parameters (in eV)
  U(s)  =   -50.870766 Beta(s) =    17.000000 Neff(s) =     2.000000
  U(p)  =   -41.599980 Beta(p) =    17.000000 Neff(p) =     2.000000 
 One-center electron repulsion parameters (in eV)
  G(s,s)=    11.110000
  G(s,p)=    11.110000 G(p,p)  =    11.110000
 Slater-Condon parameters (in eV)
 F2(p,p)=     4.5098 G1(s,p)=    6.8977
--------------------------
Parameters for Element S :
--------------------------
 One-electron parameters (in eV)
  U(s)  =   -69.509597 Beta(s) =    15.000000 Neff(s) =     2.000000
  U(p)  =   -60.725746 Beta(p) =    15.000000 Neff(p) =     4.000000 
 One-center electron repulsion parameters (in eV)
  G(s,s)=    10.090000
  G(s,p)=    10.090000 G(p,p)  =    10.090000
 Slater-Condon parameters (in eV)
 F2(p,p)=     4.5377 G1(s,p)=    3.0756

 Number of atoms                    ....   27
 Number of basis functions          ....   60

 Overlap integrals                  .... done
 One electron matrix                .... done
 Nuclear repulsion                  .... done
 Integral list                      .... done
 Electron-electron repulsion        .... done
-------------------------------------------------------------------------------
                                 ORCA SCF
-------------------------------------------------------------------------------

------------
SCF SETTINGS
------------
Hamiltonian:
 ZDO-Hamiltonian        Method          .... INDO


General Settings:
 Integral files         IntName         .... /home/mattyjones/Software/morphct/tests/output_EZ/donor_polymer/chromophores/input_orca/single/00004
 Hartree-Fock type      HFTyp           .... RHF
 Total Charge           Charge          ....    0
 Multiplicity           Mult            ....    1
 Number of Electrons    NEL             ....   62
 Basis Dimension        Dim             ....   60
 Nuclear Repulsion      ENuc            ....    289.7854392296 Eh

Convergence Acceleration:
 DIIS                   CNVDIIS         .... on
   Start iteration      DIISMaxIt       ....    12
   Startup error        DIISStart       ....  0.200000
   # of expansion vecs  DIISMaxEq       ....     5
   Bias factor          DIISBfac        ....   1.050
   Max. coefficient     DIISMaxC        ....  10.000
 Newton-Raphson         CNVNR           .... off
 SOSCF                  CNVSOSCF        .... on
   Start iteration      SOSCFMaxIt      ....   150
   Startup grad/error   SOSCFStart      ....  0.003300
 Level Shifting         CNVShift        .... on
   Level shift para.    LevelShift      ....    0.2500
   Turn off err/grad.   ShiftErr        ....    0.0010
 Zerner damping         CNVZerner       .... off
 Static damping         CNVDamp         .... on
   Fraction old density DampFac         ....    0.7000
   Max. Damping (<1)    DampMax         ....    0.9800
   Min. Damping (>=0)   DampMin         ....    0.0000
   Turn off err/grad.   DampErr         ....    0.1000
 Fernandez-Rico         CNVRico         .... off

SCF Procedure:
 Maximum # iterations   MaxIter         ....   125
 SCF integral mode      SCFMode         .... Conventional
 Integral Buffer length BufferLength    .... 1048576
 Integral index format  IndFormat       ....     0
 Integral value format  ValFormat       ....     0
 Integral Storage       Thresh          ....  1.000e-08 Eh

Convergence Tolerance:
 Convergence Check Mode ConvCheckMode   .... Total+1el-Energy
 Convergence forced     ConvForced      .... 0
 Energy Change          TolE            ....  1.000e-06 Eh
 1-El. energy change                    ....  1.000e-03 Eh
 Orbital Gradient       TolG            ....  5.000e-05
 Orbital Rotation angle TolX            ....  5.000e-05
 DIIS Error             TolErr          ....  1.000e-06


Diagonalization of the overlap matrix:
Smallest eigenvalue                        ... 1.698e-01
Time for diagonalization                   ...    0.001 sec
Threshold for overlap eigenvalues          ... 1.000e-08
Number of eigenvalues below threshold      ... 0
Time for construction of square roots      ...    0.000 sec
Total time needed                          ...    0.001 sec

-------------------------------
INITIAL GUESS: EXTENDED HUECKEL
-------------------------------
EHT matrix was read from disk
EHT matrix was diagonalized
Initial density was built
                      ------------------
                      INITIAL GUESS DONE
                      ------------------

 InCore treatment chosen:
   Memory dedicated               ...    1024 MB
   Memory needed                  ...      0 MB
   Number of tiny    integrals    ...       0
   Number of small   integrals    ...       0
   Number of regular integrals    ...    1896

--------------
SCF ITERATIONS
--------------
ITER       Energy         Delta-E        Max-DP      RMS-DP      [F,P]     Damp
  0     -8.1916511224   0.000000000000 0.03823522  0.00204218  0.1175730 0.7000
  1     -8.2125785783  -0.020927455894 0.03585158  0.00192249  0.0803304 0.7000
                               ***Turning on DIIS***
  2     -8.2280802450  -0.015501666639 0.08997319  0.00493388  0.0487132 0.0000
  3     -8.2687551858  -0.040674940789 0.02208926  0.00102997  0.0221355 0.0000
  4     -8.2610841048   0.007671080928 0.01093409  0.00069974  0.0066377 0.0000
  5     -8.2696833410  -0.008599236126 0.00732156  0.00047014  0.0037811 0.0000
  6     -8.2710314653  -0.001348124300 0.00493090  0.00033128  0.0019762 0.0000
                      *** Initiating the SOSCF procedure ***
                           *** Shutting down DIIS ***
                      *** Re-Reading the Fockian *** 
                      *** Removing any level shift *** 
ITER      Energy       Delta-E        Grad      Rot      Max-DP    RMS-DP
  7     -8.26889797   0.0021334905  0.002982  0.002982  0.004665  0.000312
  8     -8.26791616   0.0009818122  0.000291  0.000766  0.000511  0.000033
                 **** Energy Check signals convergence ****
              ***Rediagonalizing the Fockian in SOSCF/NRSCF***

               *****************************************************
               *                     SUCCESS                       *
               *           SCF CONVERGED AFTER   9 CYCLES          *
               *****************************************************


----------------
TOTAL SCF ENERGY
----------------

Total Energy       :           -8.26791700 Eh            -224.98146 eV

Components:
Nuclear Repulsion  :          289.78543923 Eh            7885.46269 eV
Electronic Energy  :         -298.05335623 Eh           -8110.44415 eV
One Electron Energy:         -551.01070849 Eh          -14993.76365 eV
Two Electron Energy:          252.95735226 Eh            6883.31950 eV


---------------
SCF CONVERGENCE
---------------

  Last Energy change         ...   -8.3946e-07  Tolerance :   1.0000e-06
  Last MAX-Density change    ...    4.9533e-04  Tolerance :   1.0000e-05
  Last RMS-Density change    ...    2.7106e-05  Tolerance :   1.0000e-06
  Last Orbital Gradient      ...    1.3795e-04  Tolerance :   5.0000e-05
  Last Orbital Rotation      ...    5.7608e-04  Tolerance :   5.0000e-05

             **** THE GBW FILE WAS UPDATED (/home/mattyjones/Software/morphct/tests/output_EZ/donor_polymer/chromophores/input_orca/single/00004.gbw) ****
             **** DENSITY FILE WAS UPDATED (/home/mattyjones/Software/morphct/tests/output_EZ/donor_polymer/chromophores/input_orca/single/00004.scfp.tmp) ****
             **** ENERGY FILE WAS UPDATED (/home/mattyjones/Software/morphct/tests/output_EZ/donor_polymer/chromophores/input_orca/single/00004.en.tmp) ****
----------------
ORBITAL ENERGIES
----------------

  NO   OCC          E(Eh)            E(eV) 
   0   2.0000      -1.555383       -42.3241 
   1   2.0000      -1.380302       -37.5599 
   2   2.0000      -1.282328       -34.8939 
   3   2.0000      -1.183230       -32.1973 
   4   2.0000      -1.113027       -30.2870 
   5   2.0000      -1.055563       -28.7233 
   6   2.0000      -0.973549       -26.4916 
   7   2.0000      -0.908471       -24.7208 
   8   2.0000      -0.844485       -22.9796 
   9   2.0000      -0.820144       -22.3172 
  10   2.0000      -0.768878       -20.9222 
  11   2.0000      -0.732920       -19.9438 
  12   2.0000      -0.681599       -18.5473 
  13   2.0000      -0.674986       -18.3673 
  14   2.0000      -0.651667       -17.7328 
  15   2.0000      -0.604160       -16.4400 
  16   2.0000      -0.592992       -16.1361 
  17   2.0000      -0.580516       -15.7967 
  18   2.0000      -0.574477       -15.6323 
  19   2.0000      -0.547252       -14.8915 
  20   2.0000      -0.530456       -14.4344 
  21   2.0000      -0.515874       -14.0377 
  22   2.0000      -0.505154       -13.7459 
  23   2.0000      -0.497830       -13.5466 
  24   2.0000      -0.493836       -13.4380 
  25   2.0000      -0.472480       -12.8568 
  26   2.0000      -0.455891       -12.4054 
  27   2.0000      -0.451707       -12.2916 
  28   2.0000      -0.436514       -11.8782 
  29   2.0000      -0.356480        -9.7003 
  30   2.0000      -0.305683        -8.3181 
  31   0.0000       0.007060         0.1921 
  32   0.0000       0.049671         1.3516 
  33   0.0000       0.073891         2.0107 
  34   0.0000       0.083066         2.2603 
  35   0.0000       0.099227         2.7001 
  36   0.0000       0.106398         2.8952 
  37   0.0000       0.122769         3.3407 
  38   0.0000       0.142819         3.8863 
  39   0.0000       0.159507         4.3404 
  40   0.0000       0.166050         4.5185 
  41   0.0000       0.173617         4.7244 
  42   0.0000       0.203313         5.5324 
  43   0.0000       0.221612         6.0304 
  44   0.0000       0.231544         6.3006 
  45   0.0000       0.232381         6.3234 
  46   0.0000       0.234776         6.3886 
  47   0.0000       0.238466         6.4890 
  48   0.0000       0.241516         6.5720 
  49   0.0000       0.242471         6.5980 
  50   0.0000       0.243921         6.6374 
  51   0.0000       0.252374         6.8674 
  52   0.0000       0.266151         7.2423 
  53   0.0000       0.271383         7.3847 
  54   0.0000       0.306897         8.3511 
  55   0.0000       0.309537         8.4229 
  56   0.0000       0.341025         9.2798 
  57   0.0000       0.367108         9.9895 
  58   0.0000       0.413635        11.2556 
  59   0.0000       0.428419        11.6579 
-------
TIMINGS
-------

Total SCF time: 0 days 0 hours 0 min 0 sec 

Total time                  ....       0.068 sec
Sum of individual times     ....       0.058 sec  ( 85.8%)

Fock matrix formation       ....       0.031 sec  ( 46.1%)
Diagonalization             ....       0.006 sec  (  8.2%)
Density matrix formation    ....       0.000 sec  (  0.6%)
Population analysis         ....       0.000 sec  (  0.0%)
Initial guess               ....       0.001 sec  (  1.0%)
Orbital Transformation      ....       0.000 sec  (  0.0%)
Orbital Orthonormalization  ....       0.000 sec  (  0.0%)
DIIS solution               ....       0.002 sec  (  2.4%)
SOSCF solution              ....       0.019 sec  ( 27.5%)

-------------------------   --------------------
FINAL SINGLE POINT ENERGY        -8.267917002027
-------------------------   --------------------


                            ***************************************
                            *     ORCA property calculations      *
                            ***************************************

                                    ---------------------
                                    Active property flags
                                    ---------------------
   (+) Dipole Moment


------------------------------------------------------------------------------
                       ORCA ELECTRIC PROPERTIES CALCULATION
------------------------------------------------------------------------------

Dipole Moment Calculation                       ... on
Quadrupole Moment Calculation                   ... off
Polarizability Calculation                      ... off
GBWName                                         ... /home/mattyjones/Software/morphct/tests/output_EZ/donor_polymer/chromophores/input_orca/single/00004.gbw
Electron density file                           ... /home/mattyjones/Software/morphct/tests/output_EZ/donor_polymer/chromophores/input_orca/single/00004.scfp.tmp
The origin for moment calculation is the CENTER OF MASS  = ( 1.740052,  1.636707  1.222665)

-------------
DIPOLE MOMENT
-------------
                                X             Y             Z
Electronic contribution:     93.32140      89.21144      67.96860
Nuclear contribution   :    -50.54035     -48.30142     -36.53095
                        -----------------------------------------
Total Dipole Moment    :     42.78105      40.91003      31.43765
                        -----------------------------------------
Magnitude (a.u.)       :     67.02368
Magnitude (Debye)      :    170.36067


Timings for individual modules:

Sum of individual times         ...        0.092 sec (=   0.002 min)
STO integral calculation        ...        0.015 sec (=   0.000 min)  16.3 %
SCF iterations                  ...        0.077 sec (=   0.001 min)  83.7 %
                             ****ORCA TERMINATED NORMALLY****
TOTAL RUN TIME: 0 days 0 hours 0 minutes 0 seconds 375 msec

