
                                 *****************
                                 * O   R   C   A *
                                 *****************

           --- An Ab Initio, DFT and Semiempirical electronic structure package ---

                  #######################################################
                  #                        -***-                        #
                  #  Department of molecular theory and spectroscopy    #
                  #              Directorship: Frank Neese              #
                  # Max Planck Institute for Chemical Energy Conversion #
                  #                  D-45470 Muelheim/Ruhr              #
                  #                       Germany                       #
                  #                                                     #
                  #                  All rights reserved                #
                  #                        -***-                        #
                  #######################################################


                         Program Version 4.0.1.2 - RELEASE -


 With contributions from (in alphabetic order):
   Daniel Aravena         : Magnetic Properties
   Michael Atanasov       : Ab Initio Ligand Field Theory
   Ute Becker             : Parallelization
   Martin Brehm           : Molecular dynamics
   Dmytro Bykov           : SCF Hessian
   Vijay G. Chilkuri      : MRCI spin determinant printing
   Dipayan Datta          : RHF DLPNO-CCSD density
   Achintya Kumar Dutta   : EOM-CC, STEOM-CC
   Dmitry Ganyushin       : Spin-Orbit,Spin-Spin,Magnetic field MRCI
   Yang Guo               : DLPNO-NEVPT2, CIM, IAO-localization
   Andreas Hansen         : Spin unrestricted coupled pair/coupled cluster methods
   Lee Huntington         : MR-EOM, pCC
   Robert Izsak           : Overlap fitted RIJCOSX, COSX-SCS-MP3, EOM
   Christian Kollmar      : KDIIS, OOCD, Brueckner-CCSD(T), CCSD density
   Simone Kossmann        : Meta GGA functionals, TD-DFT gradient, OOMP2, MP2 Hessian
   Martin Krupicka        : AUTO-CI
   Dagmar Lenk            : GEPOL surface
   Dimitrios Liakos       : Extrapolation schemes; parallel MDCI
   Dimitrios Manganas     : ROCIS; embedding schemes
   Dimitrios Pantazis     : SARC Basis sets
   Taras Petrenko         : DFT Hessian,TD-DFT gradient, ASA, ECA, R-Raman, ABS, FL, XAS/XES, NRVS
   Peter Pinski           : DLPNO-MP2
   Christoph Reimann      : Effective Core Potentials
   Marius Retegan         : Local ZFS, SOC
   Christoph Riplinger    : Optimizer, TS searches, QM/MM, DLPNO-CCSD(T), (RO)-DLPNO pert. Triples
   Tobias Risthaus        : Range-separated hybrids, TD-DFT gradient, RPA, STAB
   Michael Roemelt        : Restricted open shell CIS
   Masaaki Saitow         : Open-shell DLPNO
   Barbara Sandhoefer     : DKH picture change effects
   Kantharuban Sivalingam : CASSCF convergence, NEVPT2, FIC-MRCI
   Georgi Stoychev        : AutoAux
   Boris Wezisla          : Elementary symmetry handling
   Frank Wennmohs         : Technical directorship


 We gratefully acknowledge several colleagues who have allowed us to
 interface, adapt or use parts of their codes:
   Stefan Grimme, W. Hujo, H. Kruse,             : VdW corrections, initial TS optimization,
                  C. Bannwarth                     DFT functionals, gCP, sTDA/sTD-DF
   Ed Valeev                                     : LibInt (2-el integral package), F12 methods
   Garnet Chan, S. Sharma, J. Yang, R. Olivares  : DMRG
   Ulf Ekstrom                                   : XCFun DFT Library
   Mihaly Kallay                                 : mrcc  (arbitrary order and MRCC methods)
   Andreas Klamt, Michael Diedenhofen            : otool_cosmo (COSMO solvation model)
   Jiri Pittner, Ondrej Demel                    : Mk-CCSD
   Frank Weinhold                                : gennbo (NPA and NBO analysis)
   Christopher J. Cramer and Donald G. Truhlar   : smd solvation model


 Your calculation uses the libint2 library for the computation of 2-el integrals
 For citations please refer to: http://libint.valeyev.net

 This ORCA versions uses:
   CBLAS   interface :  Fast vector & matrix operations
   LAPACKE interface :  Fast linear algebra routines
   SCALAPACK package :  Parallel linear algebra routines


leaving
Your calculation utilizes the basis: def2-SVP
   F. Weigend and R. Ahlrichs, Phys. Chem. Chem. Phys. 7, 3297 (2005).

================================================================================
                                        WARNINGS
                       Please study these warnings very carefully!
================================================================================

Warning: TCutStore was < 0. Adjusted to Thresh (uncritical)

WARNING: Direct SCF is incompatible with Method<>HF and Method<>DFT
  ===> : conventional SCF is chosen

WARNING: The NDO methods need Guess=HUECKEL or Guess=HCORE or Guess=MOREAD
  ===> : Guess is set to Hueckel

WARNING: The NDO methods need %rel::SOCType==1
  ===> : %rel::SOCType is set to 1

WARNING: The NDO methods cannot have frozencore=1
  ===> : %method FrozenCore=0 end

INFO   : the flag for use of LIBINT has been found!

================================================================================
                                       INPUT FILE
================================================================================
NAME = /home/mattyjones/Software/morphct/tests/output_EZ/donor_polymer/chromophores/input_orca/single/00005.inp
|  1> # ================================================================
|  2> # Orca input file made by Matty Jones
|  3> # ================================================================
|  4> ! ZINDO/S 
|  5> ! NOPOP
|  6> ! NOMOPRINT
|  7> * xyz 0   1
|  8>  C  -4.53785  -1.78591  -2.20303
|  9>  C  -3.30619  -1.14657  -2.05419
| 10>  C  -2.39084  -1.83471  -1.19812
| 11>  C  -2.90229  -3.02342  -0.66831
| 12>  S  -4.43852  -3.15857  -1.27836
| 13>  H  -3.08883  0.00572  -1.90921
| 14>  C  -0.90282  -1.28691  -0.87422
| 15>  C  -0.71514  0.30046  -0.28360
| 16>  C  0.86953  0.87980  -0.02658
| 17>  H  0.76672  2.03715  -0.11526
| 18>  H  1.49414  0.52601  -0.92917
| 19>  H  -1.21510  1.01334  -1.03528
| 20>  H  -1.26315  0.35115  0.72783
| 21>  H  -0.37454  -1.97931  -0.10387
| 22>  H  -0.27233  -1.32264  -1.85800
| 23>  C  1.67038  0.59978  1.36652
| 24>  C  3.29114  1.11706  1.35093
| 25>  C  3.61955  2.68813  1.85836
| 26>  H  3.77085  3.36496  0.93133
| 27>  H  4.58704  2.68787  2.49551
| 28>  H  2.73874  3.08729  2.49177
| 29>  H  3.88885  0.39707  2.02487
| 30>  H  3.66918  1.02965  0.26466
| 31>  H  1.67419  -0.53455  1.58759
| 32>  H  1.14111  1.14643  2.23624
| 33>  H  -5.36283  -1.46218  -2.78459
| 34>  H  -2.41098  -3.69709  -0.01381
| 35> *
| 36> 
| 37>                          ****END OF INPUT****
================================================================================

                       ****************************
                       * Single Point Calculation *
                       ****************************

---------------------------------
CARTESIAN COORDINATES (ANGSTROEM)
---------------------------------
  C     -4.537850   -1.785910   -2.203030
  C     -3.306190   -1.146570   -2.054190
  C     -2.390840   -1.834710   -1.198120
  C     -2.902290   -3.023420   -0.668310
  S     -4.438520   -3.158570   -1.278360
  H     -3.088830    0.005720   -1.909210
  C     -0.902820   -1.286910   -0.874220
  C     -0.715140    0.300460   -0.283600
  C      0.869530    0.879800   -0.026580
  H      0.766720    2.037150   -0.115260
  H      1.494140    0.526010   -0.929170
  H     -1.215100    1.013340   -1.035280
  H     -1.263150    0.351150    0.727830
  H     -0.374540   -1.979310   -0.103870
  H     -0.272330   -1.322640   -1.858000
  C      1.670380    0.599780    1.366520
  C      3.291140    1.117060    1.350930
  C      3.619550    2.688130    1.858360
  H      3.770850    3.364960    0.931330
  H      4.587040    2.687870    2.495510
  H      2.738740    3.087290    2.491770
  H      3.888850    0.397070    2.024870
  H      3.669180    1.029650    0.264660
  H      1.674190   -0.534550    1.587590
  H      1.141110    1.146430    2.236240
  H     -5.362830   -1.462180   -2.784590
  H     -2.410980   -3.697090   -0.013810

----------------------------
CARTESIAN COORDINATES (A.U.)
----------------------------
  NO LB      ZA    FRAG     MASS         X           Y           Z
   0 C     4.0000    0    12.011   -8.575294   -3.374881   -4.163123
   1 C     4.0000    0    12.011   -6.247794   -2.166703   -3.881857
   2 C     4.0000    0    12.011   -4.518033   -3.467099   -2.264119
   3 C     4.0000    0    12.011   -5.484533   -5.713436   -1.262923
   4 S     6.0000    0    32.060   -8.387587   -5.968832   -2.415750
   5 H     1.0000    0     1.008   -5.837043    0.010809   -3.607884
   6 C     4.0000    0    12.011   -1.706083   -2.431907   -1.652036
   7 C     4.0000    0    12.011   -1.351419    0.567787   -0.535926
   8 C     4.0000    0    12.011    1.643174    1.662581   -0.050229
   9 H     1.0000    0     1.008    1.448891    3.849656   -0.217810
  10 H     1.0000    0     1.008    2.823515    0.994015   -1.755877
  11 H     1.0000    0     1.008   -2.296206    1.914935   -1.956396
  12 H     1.0000    0     1.008   -2.387008    0.663577    1.375399
  13 H     1.0000    0     1.008   -0.707778   -3.740354   -0.196286
  14 H     1.0000    0     1.008   -0.514629   -2.499427   -3.511111
  15 C     4.0000    0    12.011    3.156561    1.133420    2.582349
  16 C     4.0000    0    12.011    6.219353    2.110937    2.552888
  17 C     4.0000    0    12.011    6.839958    5.079830    3.511791
  18 H     1.0000    0     1.008    7.125874    6.358853    1.759959
  19 H     1.0000    0     1.008    8.668249    5.079338    4.715830
  20 H     1.0000    0     1.008    5.175469    5.834133    4.708763
  21 H     1.0000    0     1.008    7.348861    0.750354    3.826450
  22 H     1.0000    0     1.008    6.933745    1.945757    0.500135
  23 H     1.0000    0     1.008    3.163761   -1.010153    3.000110
  24 H     1.0000    0     1.008    2.156385    2.166439    4.225881
  25 H     1.0000    0     1.008  -10.134280   -2.763120   -5.262112
  26 H     1.0000    0     1.008   -4.556092   -6.986488   -0.026097

--------------------------------
INTERNAL COORDINATES (ANGSTROEM)
--------------------------------
 C      0   0   0     0.000000000000     0.00000000     0.00000000
 C      1   0   0     1.395670210616     0.00000000     0.00000000
 C      2   1   0     1.429775551267   114.10127583     0.00000000
 C      3   2   1     1.398324426841   113.69334588     0.00000000
 S      1   2   3     1.658033936142   105.47995551     0.00000000
 H      2   1   3     1.181540017985   128.47540264   221.86447332
 C      3   2   1     1.618394133207   123.06246125   180.00478552
 C      7   3   2     1.704053779580   119.07394573    53.52764056
 C      8   7   3     1.706714130984   118.07721634   183.08476388
 H      9   8   7     1.165286686185   104.10838902   154.81571028
 H      9   8   7     1.153244867450   106.31296559    41.97008931
 H      8   7   3     1.150295926447   107.63432946   304.17278035
 H      8   7   3     1.151466491523   107.03981364    62.23417147
 H      7   3   2     1.162728102739   110.41249395   176.39510912
 H      7   3   2     1.169024106424   108.48852206   293.49555970
 C      9   8   7     1.631103777477   121.75052669   274.39484043
 C     16   9   8     1.701377272712   114.06045365   173.70244195
 C     17  16   9     1.683329818514   117.82995806    90.19066611
 H     18  17  16     1.157745723292   109.25340661   259.25656240
 H     18  17  16     1.158445980700   109.17911345   139.70951249
 H     18  17  16     1.156011760234   109.80269083    19.55800697
 H     17  16   9     1.153186007459   107.37190666   211.99547974
 H     17  16   9     1.153489168826   107.32530229   329.59468226
 H     16   9   8     1.155677727526   109.48139254    53.50391262
 H     16   9   8     1.155580301753   109.67697776   294.22425965
 H      1   2   3     1.060002427780   127.25975250   179.99955627
 H      4   3   2     1.059993884416   127.20642214   179.99993478

---------------------------
INTERNAL COORDINATES (A.U.)
---------------------------
 C      0   0   0     0.000000000000     0.00000000     0.00000000
 C      1   0   0     2.637434471336     0.00000000     0.00000000
 C      2   1   0     2.701884224870   114.10127583     0.00000000
 C      3   2   1     2.642450213102   113.69334588     0.00000000
 S      1   2   3     3.133230060057   105.47995551     0.00000000
 H      2   1   3     2.232787050260   128.47540264   221.86447332
 C      3   2   1     3.058321688507   123.06246125   180.00478552
 C      7   3   2     3.220194960879   119.07394573    53.52764056
 C      8   7   3     3.225222296453   118.07721634   183.08476388
 H      9   8   7     2.202072704394   104.10838902   154.81571028
 H      9   8   7     2.179316964831   106.31296559    41.97008931
 H      8   7   3     2.173744273950   107.63432946   304.17278035
 H      8   7   3     2.175956321365   107.03981364    62.23417147
 H      7   3   2     2.197237682391   110.41249395   176.39510912
 H      7   3   2     2.209135405093   108.48852206   293.49555970
 C      9   8   7     3.082339435436   121.75052669   274.39484043
 C     16   9   8     3.215137095903   114.06045365   173.70244195
 C     17  16   9     3.181032350056   117.82995806    90.19066611
 H     18  17  16     2.187822349740   109.25340661   259.25656240
 H     18  17  16     2.189145644465   109.17911345   139.70951249
 H     18  17  16     2.184545634435   109.80269083    19.55800697
 H     17  16   9     2.179205735568   107.37190666   211.99547974
 H     17  16   9     2.179778627526   107.32530229   329.59468226
 H     16   9   8     2.183914404097   109.48139254    53.50391262
 H     16   9   8     2.183730296068   109.67697776   294.22425965
 H      1   2   3     2.003114289796   127.25975250   179.99955627
 H      4   3   2     2.003098145178   127.20642214   179.99993478

----------------------------
SLATER BASIS SET DIM=  60
----------------------------
  0 C     2 shells
 l=0 nsto= 1
    2       1.625000000000        1.000000000000
 l=1 nsto= 1
    2       1.625000000000        1.000000000000
  1 C     2 shells
 l=0 nsto= 1
    2       1.625000000000        1.000000000000
 l=1 nsto= 1
    2       1.625000000000        1.000000000000
  2 C     2 shells
 l=0 nsto= 1
    2       1.625000000000        1.000000000000
 l=1 nsto= 1
    2       1.625000000000        1.000000000000
  3 C     2 shells
 l=0 nsto= 1
    2       1.625000000000        1.000000000000
 l=1 nsto= 1
    2       1.625000000000        1.000000000000
  4 S     2 shells
 l=0 nsto= 1
    3       1.925000000000        1.000000000000
 l=1 nsto= 1
    3       1.925000000000        1.000000000000
  5 H     1 shells
 l=0 nsto= 1
    1       1.200000000000        1.000000000000
  6 C     2 shells
 l=0 nsto= 1
    2       1.625000000000        1.000000000000
 l=1 nsto= 1
    2       1.625000000000        1.000000000000
  7 C     2 shells
 l=0 nsto= 1
    2       1.625000000000        1.000000000000
 l=1 nsto= 1
    2       1.625000000000        1.000000000000
  8 C     2 shells
 l=0 nsto= 1
    2       1.625000000000        1.000000000000
 l=1 nsto= 1
    2       1.625000000000        1.000000000000
  9 H     1 shells
 l=0 nsto= 1
    1       1.200000000000        1.000000000000
 10 H     1 shells
 l=0 nsto= 1
    1       1.200000000000        1.000000000000
 11 H     1 shells
 l=0 nsto= 1
    1       1.200000000000        1.000000000000
 12 H     1 shells
 l=0 nsto= 1
    1       1.200000000000        1.000000000000
 13 H     1 shells
 l=0 nsto= 1
    1       1.200000000000        1.000000000000
 14 H     1 shells
 l=0 nsto= 1
    1       1.200000000000        1.000000000000
 15 C     2 shells
 l=0 nsto= 1
    2       1.625000000000        1.000000000000
 l=1 nsto= 1
    2       1.625000000000        1.000000000000
 16 C     2 shells
 l=0 nsto= 1
    2       1.625000000000        1.000000000000
 l=1 nsto= 1
    2       1.625000000000        1.000000000000
 17 C     2 shells
 l=0 nsto= 1
    2       1.625000000000        1.000000000000
 l=1 nsto= 1
    2       1.625000000000        1.000000000000
 18 H     1 shells
 l=0 nsto= 1
    1       1.200000000000        1.000000000000
 19 H     1 shells
 l=0 nsto= 1
    1       1.200000000000        1.000000000000
 20 H     1 shells
 l=0 nsto= 1
    1       1.200000000000        1.000000000000
 21 H     1 shells
 l=0 nsto= 1
    1       1.200000000000        1.000000000000
 22 H     1 shells
 l=0 nsto= 1
    1       1.200000000000        1.000000000000
 23 H     1 shells
 l=0 nsto= 1
    1       1.200000000000        1.000000000000
 24 H     1 shells
 l=0 nsto= 1
    1       1.200000000000        1.000000000000
 25 H     1 shells
 l=0 nsto= 1
    1       1.200000000000        1.000000000000
 26 H     1 shells
 l=0 nsto= 1
    1       1.200000000000        1.000000000000
------------------------------------------------------------------------------
                           ORCA NDO INTEGRAL CALCULATION
------------------------------------------------------------------------------

--------------
NDO PARAMETERS
--------------

Gamma integral treatment              ... Mataga-Nishimoto
Nuclear repulsuion treatment          ... Direct (ZA*ZB/RAB)
Interaction factors:
s-s (sigma) =    1.0000
s-p (sigma) =    1.0000
s-d (sigma) =    1.0000
p-p (sigma) =    1.2670  p-p(pi) =    0.5850
p-d (sigma) =    1.0000  p-d(pi) =    1.0000
d-d (sigma) =    1.0000  d-d(pi) =    1.0000 d-d (delta) =    1.0000

fGamma parameter for Mataga-Nishimoto gamma integrals:    1.2000

--------------------------
Parameters for Element H :
--------------------------
 One-electron parameters (in eV)
  U(s)  =   -13.060000 Beta(s) =    12.000000 Neff(s) =     1.000000
 One-center electron repulsion parameters (in eV)
  G(s,s)=    12.850000
--------------------------
Parameters for Element C :
--------------------------
 One-electron parameters (in eV)
  U(s)  =   -50.870766 Beta(s) =    17.000000 Neff(s) =     2.000000
  U(p)  =   -41.599980 Beta(p) =    17.000000 Neff(p) =     2.000000 
 One-center electron repulsion parameters (in eV)
  G(s,s)=    11.110000
  G(s,p)=    11.110000 G(p,p)  =    11.110000
 Slater-Condon parameters (in eV)
 F2(p,p)=     4.5098 G1(s,p)=    6.8977
--------------------------
Parameters for Element S :
--------------------------
 One-electron parameters (in eV)
  U(s)  =   -69.509597 Beta(s) =    15.000000 Neff(s) =     2.000000
  U(p)  =   -60.725746 Beta(p) =    15.000000 Neff(p) =     4.000000 
 One-center electron repulsion parameters (in eV)
  G(s,s)=    10.090000
  G(s,p)=    10.090000 G(p,p)  =    10.090000
 Slater-Condon parameters (in eV)
 F2(p,p)=     4.5377 G1(s,p)=    3.0756

 Number of atoms                    ....   27
 Number of basis functions          ....   60

 Overlap integrals                  .... done
 One electron matrix                .... done
 Nuclear repulsion                  .... done
 Integral list                      .... done
 Electron-electron repulsion        .... done
-------------------------------------------------------------------------------
                                 ORCA SCF
-------------------------------------------------------------------------------

------------
SCF SETTINGS
------------
Hamiltonian:
 ZDO-Hamiltonian        Method          .... INDO


General Settings:
 Integral files         IntName         .... /home/mattyjones/Software/morphct/tests/output_EZ/donor_polymer/chromophores/input_orca/single/00005
 Hartree-Fock type      HFTyp           .... RHF
 Total Charge           Charge          ....    0
 Multiplicity           Mult            ....    1
 Number of Electrons    NEL             ....   62
 Basis Dimension        Dim             ....   60
 Nuclear Repulsion      ENuc            ....    288.2254332778 Eh

Convergence Acceleration:
 DIIS                   CNVDIIS         .... on
   Start iteration      DIISMaxIt       ....    12
   Startup error        DIISStart       ....  0.200000
   # of expansion vecs  DIISMaxEq       ....     5
   Bias factor          DIISBfac        ....   1.050
   Max. coefficient     DIISMaxC        ....  10.000
 Newton-Raphson         CNVNR           .... off
 SOSCF                  CNVSOSCF        .... on
   Start iteration      SOSCFMaxIt      ....   150
   Startup grad/error   SOSCFStart      ....  0.003300
 Level Shifting         CNVShift        .... on
   Level shift para.    LevelShift      ....    0.2500
   Turn off err/grad.   ShiftErr        ....    0.0010
 Zerner damping         CNVZerner       .... off
 Static damping         CNVDamp         .... on
   Fraction old density DampFac         ....    0.7000
   Max. Damping (<1)    DampMax         ....    0.9800
   Min. Damping (>=0)   DampMin         ....    0.0000
   Turn off err/grad.   DampErr         ....    0.1000
 Fernandez-Rico         CNVRico         .... off

SCF Procedure:
 Maximum # iterations   MaxIter         ....   125
 SCF integral mode      SCFMode         .... Conventional
 Integral Buffer length BufferLength    .... 1048576
 Integral index format  IndFormat       ....     0
 Integral value format  ValFormat       ....     0
 Integral Storage       Thresh          ....  1.000e-08 Eh

Convergence Tolerance:
 Convergence Check Mode ConvCheckMode   .... Total+1el-Energy
 Convergence forced     ConvForced      .... 0
 Energy Change          TolE            ....  1.000e-06 Eh
 1-El. energy change                    ....  1.000e-03 Eh
 Orbital Gradient       TolG            ....  5.000e-05
 Orbital Rotation angle TolX            ....  5.000e-05
 DIIS Error             TolErr          ....  1.000e-06


Diagonalization of the overlap matrix:
Smallest eigenvalue                        ... 1.690e-01
Time for diagonalization                   ...    0.001 sec
Threshold for overlap eigenvalues          ... 1.000e-08
Number of eigenvalues below threshold      ... 0
Time for construction of square roots      ...    0.000 sec
Total time needed                          ...    0.001 sec

-------------------------------
INITIAL GUESS: EXTENDED HUECKEL
-------------------------------
EHT matrix was read from disk
EHT matrix was diagonalized
Initial density was built
                      ------------------
                      INITIAL GUESS DONE
                      ------------------

 InCore treatment chosen:
   Memory dedicated               ...    1024 MB
   Memory needed                  ...      0 MB
   Number of tiny    integrals    ...       0
   Number of small   integrals    ...       0
   Number of regular integrals    ...    1896

--------------
SCF ITERATIONS
--------------
ITER       Energy         Delta-E        Max-DP      RMS-DP      [F,P]     Damp
  0     -8.1566934994   0.000000000000 0.04386501  0.00211969  0.0978653 0.7000
  1     -8.1790107769  -0.022317277499 0.04126368  0.00200186  0.0662163 0.7000
                               ***Turning on DIIS***
  2     -8.1954756245  -0.016464847602 0.10391359  0.00513747  0.0428090 0.0000
  3     -8.2383805785  -0.042904954076 0.01605774  0.00105945  0.0205991 0.0000
  4     -8.2301689449   0.008211633686 0.01117055  0.00074537  0.0076318 0.0000
  5     -8.2394072007  -0.009238255812 0.00804483  0.00050996  0.0043266 0.0000
  6     -8.2402327596  -0.000825558937 0.00632537  0.00036662  0.0023109 0.0000
                      *** Initiating the SOSCF procedure ***
                           *** Shutting down DIIS ***
                      *** Re-Reading the Fockian *** 
                      *** Removing any level shift *** 
ITER      Energy       Delta-E        Grad      Rot      Max-DP    RMS-DP
  7     -8.23865996   0.0015727946  0.003230  0.003230  0.003900  0.000214
  8     -8.23756890   0.0010910636  0.000917  0.002601  0.001920  0.000103
  9     -8.23757867  -0.0000097714  0.000402  0.002632  0.002356  0.000116
 10     -8.23758254  -0.0000038713  0.000039  0.000087  0.000149  0.000007
                 **** Energy Check signals convergence ****
              ***Rediagonalizing the Fockian in SOSCF/NRSCF***

               *****************************************************
               *                     SUCCESS                       *
               *           SCF CONVERGED AFTER  11 CYCLES          *
               *****************************************************


----------------
TOTAL SCF ENERGY
----------------

Total Energy       :           -8.23758259 Eh            -224.15602 eV

Components:
Nuclear Repulsion  :          288.22543328 Eh            7843.01277 eV
Electronic Energy  :         -296.46301586 Eh           -8067.16879 eV
One Electron Energy:         -547.77946262 Eh          -14905.83698 eV
Two Electron Energy:          251.31644676 Eh            6838.66819 eV


---------------
SCF CONVERGENCE
---------------

  Last Energy change         ...   -4.1618e-08  Tolerance :   1.0000e-06
  Last MAX-Density change    ...    7.1827e-05  Tolerance :   1.0000e-05
  Last RMS-Density change    ...    2.8875e-06  Tolerance :   1.0000e-06
  Last Orbital Gradient      ...    1.7976e-05  Tolerance :   5.0000e-05
  Last Orbital Rotation      ...    4.6788e-05  Tolerance :   5.0000e-05

             **** THE GBW FILE WAS UPDATED (/home/mattyjones/Software/morphct/tests/output_EZ/donor_polymer/chromophores/input_orca/single/00005.gbw) ****
             **** DENSITY FILE WAS UPDATED (/home/mattyjones/Software/morphct/tests/output_EZ/donor_polymer/chromophores/input_orca/single/00005.scfp.tmp) ****
             **** ENERGY FILE WAS UPDATED (/home/mattyjones/Software/morphct/tests/output_EZ/donor_polymer/chromophores/input_orca/single/00005.en.tmp) ****
----------------
ORBITAL ENERGIES
----------------

  NO   OCC          E(Eh)            E(eV) 
   0   2.0000      -1.559720       -42.4421 
   1   2.0000      -1.391454       -37.8634 
   2   2.0000      -1.291439       -35.1418 
   3   2.0000      -1.179033       -32.0831 
   4   2.0000      -1.110985       -30.2314 
   5   2.0000      -1.040861       -28.3233 
   6   2.0000      -0.960553       -26.1380 
   7   2.0000      -0.900129       -24.4938 
   8   2.0000      -0.862182       -23.4612 
   9   2.0000      -0.823521       -22.4091 
  10   2.0000      -0.768710       -20.9177 
  11   2.0000      -0.736339       -20.0368 
  12   2.0000      -0.681580       -18.5467 
  13   2.0000      -0.676113       -18.3980 
  14   2.0000      -0.650640       -17.7048 
  15   2.0000      -0.616412       -16.7734 
  16   2.0000      -0.582642       -15.8545 
  17   2.0000      -0.577586       -15.7169 
  18   2.0000      -0.571362       -15.5476 
  19   2.0000      -0.558483       -15.1971 
  20   2.0000      -0.527716       -14.3599 
  21   2.0000      -0.523200       -14.2370 
  22   2.0000      -0.503281       -13.6950 
  23   2.0000      -0.493860       -13.4386 
  24   2.0000      -0.486394       -13.2355 
  25   2.0000      -0.481743       -13.1089 
  26   2.0000      -0.469595       -12.7783 
  27   2.0000      -0.456016       -12.4088 
  28   2.0000      -0.437010       -11.8916 
  29   2.0000      -0.349964        -9.5230 
  30   2.0000      -0.304806        -8.2942 
  31   0.0000       0.002799         0.0762 
  32   0.0000       0.058433         1.5900 
  33   0.0000       0.073323         1.9952 
  34   0.0000       0.089214         2.4276 
  35   0.0000       0.104799         2.8517 
  36   0.0000       0.109065         2.9678 
  37   0.0000       0.125815         3.4236 
  38   0.0000       0.144520         3.9326 
  39   0.0000       0.155306         4.2261 
  40   0.0000       0.169679         4.6172 
  41   0.0000       0.178023         4.8443 
  42   0.0000       0.199667         5.4332 
  43   0.0000       0.234255         6.3744 
  44   0.0000       0.235203         6.4002 
  45   0.0000       0.236253         6.4288 
  46   0.0000       0.238373         6.4864 
  47   0.0000       0.242726         6.6049 
  48   0.0000       0.243036         6.6133 
  49   0.0000       0.243900         6.6368 
  50   0.0000       0.251173         6.8348 
  51   0.0000       0.256687         6.9848 
  52   0.0000       0.265483         7.2242 
  53   0.0000       0.277374         7.5477 
  54   0.0000       0.304640         8.2897 
  55   0.0000       0.309145         8.4123 
  56   0.0000       0.337477         9.1832 
  57   0.0000       0.353074         9.6076 
  58   0.0000       0.411672        11.2022 
  59   0.0000       0.431369        11.7381 
-------
TIMINGS
-------

Total SCF time: 0 days 0 hours 0 min 0 sec 

Total time                  ....       0.065 sec
Sum of individual times     ....       0.055 sec  ( 85.0%)

Fock matrix formation       ....       0.042 sec  ( 64.6%)
Diagonalization             ....       0.005 sec  (  8.3%)
Density matrix formation    ....       0.000 sec  (  0.7%)
Population analysis         ....       0.000 sec  (  0.0%)
Initial guess               ....       0.001 sec  (  1.1%)
Orbital Transformation      ....       0.000 sec  (  0.0%)
Orbital Orthonormalization  ....       0.000 sec  (  0.0%)
DIIS solution               ....       0.002 sec  (  2.8%)
SOSCF solution              ....       0.005 sec  (  7.6%)

-------------------------   --------------------
FINAL SINGLE POINT ENERGY        -8.237582585723
-------------------------   --------------------


                            ***************************************
                            *     ORCA property calculations      *
                            ***************************************

                                    ---------------------
                                    Active property flags
                                    ---------------------
   (+) Dipole Moment


------------------------------------------------------------------------------
                       ORCA ELECTRIC PROPERTIES CALCULATION
------------------------------------------------------------------------------

Dipole Moment Calculation                       ... on
Quadrupole Moment Calculation                   ... off
Polarizability Calculation                      ... off
GBWName                                         ... /home/mattyjones/Software/morphct/tests/output_EZ/donor_polymer/chromophores/input_orca/single/00005.gbw
Electron density file                           ... /home/mattyjones/Software/morphct/tests/output_EZ/donor_polymer/chromophores/input_orca/single/00005.scfp.tmp
The origin for moment calculation is the CENTER OF MASS  = (-2.202918, -1.532746 -0.783280)

-------------
DIPOLE MOMENT
-------------
                                X             Y             Z
Electronic contribution:   -120.17686     -84.44923     -38.54521
Nuclear contribution   :     64.57064      45.38772      20.99505
                        -----------------------------------------
Total Dipole Moment    :    -55.60622     -39.06152     -17.55017
                        -----------------------------------------
Magnitude (a.u.)       :     70.18448
Magnitude (Debye)      :    178.39478


Timings for individual modules:

Sum of individual times         ...        0.088 sec (=   0.001 min)
STO integral calculation        ...        0.013 sec (=   0.000 min)  15.0 %
SCF iterations                  ...        0.074 sec (=   0.001 min)  85.0 %
                             ****ORCA TERMINATED NORMALLY****
TOTAL RUN TIME: 0 days 0 hours 0 minutes 0 seconds 347 msec

