
                                 *****************
                                 * O   R   C   A *
                                 *****************

           --- An Ab Initio, DFT and Semiempirical electronic structure package ---

                  #######################################################
                  #                        -***-                        #
                  #  Department of molecular theory and spectroscopy    #
                  #              Directorship: Frank Neese              #
                  # Max Planck Institute for Chemical Energy Conversion #
                  #                  D-45470 Muelheim/Ruhr              #
                  #                       Germany                       #
                  #                                                     #
                  #                  All rights reserved                #
                  #                        -***-                        #
                  #######################################################


                         Program Version 4.0.1.2 - RELEASE -


 With contributions from (in alphabetic order):
   Daniel Aravena         : Magnetic Properties
   Michael Atanasov       : Ab Initio Ligand Field Theory
   Ute Becker             : Parallelization
   Martin Brehm           : Molecular dynamics
   Dmytro Bykov           : SCF Hessian
   Vijay G. Chilkuri      : MRCI spin determinant printing
   Dipayan Datta          : RHF DLPNO-CCSD density
   Achintya Kumar Dutta   : EOM-CC, STEOM-CC
   Dmitry Ganyushin       : Spin-Orbit,Spin-Spin,Magnetic field MRCI
   Yang Guo               : DLPNO-NEVPT2, CIM, IAO-localization
   Andreas Hansen         : Spin unrestricted coupled pair/coupled cluster methods
   Lee Huntington         : MR-EOM, pCC
   Robert Izsak           : Overlap fitted RIJCOSX, COSX-SCS-MP3, EOM
   Christian Kollmar      : KDIIS, OOCD, Brueckner-CCSD(T), CCSD density
   Simone Kossmann        : Meta GGA functionals, TD-DFT gradient, OOMP2, MP2 Hessian
   Martin Krupicka        : AUTO-CI
   Dagmar Lenk            : GEPOL surface
   Dimitrios Liakos       : Extrapolation schemes; parallel MDCI
   Dimitrios Manganas     : ROCIS; embedding schemes
   Dimitrios Pantazis     : SARC Basis sets
   Taras Petrenko         : DFT Hessian,TD-DFT gradient, ASA, ECA, R-Raman, ABS, FL, XAS/XES, NRVS
   Peter Pinski           : DLPNO-MP2
   Christoph Reimann      : Effective Core Potentials
   Marius Retegan         : Local ZFS, SOC
   Christoph Riplinger    : Optimizer, TS searches, QM/MM, DLPNO-CCSD(T), (RO)-DLPNO pert. Triples
   Tobias Risthaus        : Range-separated hybrids, TD-DFT gradient, RPA, STAB
   Michael Roemelt        : Restricted open shell CIS
   Masaaki Saitow         : Open-shell DLPNO
   Barbara Sandhoefer     : DKH picture change effects
   Kantharuban Sivalingam : CASSCF convergence, NEVPT2, FIC-MRCI
   Georgi Stoychev        : AutoAux
   Boris Wezisla          : Elementary symmetry handling
   Frank Wennmohs         : Technical directorship


 We gratefully acknowledge several colleagues who have allowed us to
 interface, adapt or use parts of their codes:
   Stefan Grimme, W. Hujo, H. Kruse,             : VdW corrections, initial TS optimization,
                  C. Bannwarth                     DFT functionals, gCP, sTDA/sTD-DF
   Ed Valeev                                     : LibInt (2-el integral package), F12 methods
   Garnet Chan, S. Sharma, J. Yang, R. Olivares  : DMRG
   Ulf Ekstrom                                   : XCFun DFT Library
   Mihaly Kallay                                 : mrcc  (arbitrary order and MRCC methods)
   Andreas Klamt, Michael Diedenhofen            : otool_cosmo (COSMO solvation model)
   Jiri Pittner, Ondrej Demel                    : Mk-CCSD
   Frank Weinhold                                : gennbo (NPA and NBO analysis)
   Christopher J. Cramer and Donald G. Truhlar   : smd solvation model


 Your calculation uses the libint2 library for the computation of 2-el integrals
 For citations please refer to: http://libint.valeyev.net

 This ORCA versions uses:
   CBLAS   interface :  Fast vector & matrix operations
   LAPACKE interface :  Fast linear algebra routines
   SCALAPACK package :  Parallel linear algebra routines


leaving
Your calculation utilizes the basis: def2-SVP
   F. Weigend and R. Ahlrichs, Phys. Chem. Chem. Phys. 7, 3297 (2005).

================================================================================
                                        WARNINGS
                       Please study these warnings very carefully!
================================================================================

Warning: TCutStore was < 0. Adjusted to Thresh (uncritical)

WARNING: Direct SCF is incompatible with Method<>HF and Method<>DFT
  ===> : conventional SCF is chosen

WARNING: The NDO methods need Guess=HUECKEL or Guess=HCORE or Guess=MOREAD
  ===> : Guess is set to Hueckel

WARNING: The NDO methods need %rel::SOCType==1
  ===> : %rel::SOCType is set to 1

WARNING: The NDO methods cannot have frozencore=1
  ===> : %method FrozenCore=0 end

INFO   : the flag for use of LIBINT has been found!

================================================================================
                                       INPUT FILE
================================================================================
NAME = /home/mattyjones/Software/morphct/tests/output_EZ/donor_polymer/chromophores/input_orca/single/00006.inp
|  1> # ================================================================
|  2> # Orca input file made by Matty Jones
|  3> # ================================================================
|  4> ! ZINDO/S 
|  5> ! NOPOP
|  6> ! NOMOPRINT
|  7> * xyz 0   1
|  8>  C  2.11998  3.96155  -0.74055
|  9>  C  1.71431  2.62675  -0.70012
| 10>  C  2.40349  1.83625  0.27169
| 11>  C  3.35817  2.55047  1.00232
| 12>  S  3.30014  4.10061  0.41572
| 13>  H  0.88725  2.19397  -1.35510
| 14>  C  2.20284  0.26607  0.60048
| 15>  C  0.74112  -0.46004  1.05830
| 16>  C  -0.30763  -1.08440  -0.09233
| 17>  H  -0.68486  -0.21083  -0.74787
| 18>  H  0.28295  -1.82557  -0.75387
| 19>  H  1.01388  -1.32592  1.77318
| 20>  H  0.15361  0.33970  1.65348
| 21>  H  2.96138  -0.07969  1.41729
| 22>  H  2.50157  -0.32563  -0.37357
| 23>  C  -1.57526  -1.84601  0.59513
| 24>  C  -2.61062  -2.53688  -0.54300
| 25>  C  -3.72597  -1.42545  -1.13057
| 26>  H  -4.71156  -1.97211  -1.39311
| 27>  H  -3.29344  -0.92518  -2.08101
| 28>  H  -3.93333  -0.61656  -0.32925
| 29>  H  -1.98606  -2.94522  -1.41955
| 30>  H  -3.18211  -3.40093  -0.03863
| 31>  H  -1.18872  -2.69737  1.27722
| 32>  H  -2.17968  -1.10183  1.23980
| 33>  H  1.75132  4.72535  -1.37640
| 34>  H  3.98724  2.17889  1.77030
| 35> *
| 36> 
| 37>                          ****END OF INPUT****
================================================================================

                       ****************************
                       * Single Point Calculation *
                       ****************************

---------------------------------
CARTESIAN COORDINATES (ANGSTROEM)
---------------------------------
  C      2.119980    3.961550   -0.740550
  C      1.714310    2.626750   -0.700120
  C      2.403490    1.836250    0.271690
  C      3.358170    2.550470    1.002320
  S      3.300140    4.100610    0.415720
  H      0.887250    2.193970   -1.355100
  C      2.202840    0.266070    0.600480
  C      0.741120   -0.460040    1.058300
  C     -0.307630   -1.084400   -0.092330
  H     -0.684860   -0.210830   -0.747870
  H      0.282950   -1.825570   -0.753870
  H      1.013880   -1.325920    1.773180
  H      0.153610    0.339700    1.653480
  H      2.961380   -0.079690    1.417290
  H      2.501570   -0.325630   -0.373570
  C     -1.575260   -1.846010    0.595130
  C     -2.610620   -2.536880   -0.543000
  C     -3.725970   -1.425450   -1.130570
  H     -4.711560   -1.972110   -1.393110
  H     -3.293440   -0.925180   -2.081010
  H     -3.933330   -0.616560   -0.329250
  H     -1.986060   -2.945220   -1.419550
  H     -3.182110   -3.400930   -0.038630
  H     -1.188720   -2.697370    1.277220
  H     -2.179680   -1.101830    1.239800
  H      1.751320    4.725350   -1.376400
  H      3.987240    2.178890    1.770300

----------------------------
CARTESIAN COORDINATES (A.U.)
----------------------------
  NO LB      ZA    FRAG     MASS         X           Y           Z
   0 C     4.0000    0    12.011    4.006182    7.486245   -1.399437
   1 C     4.0000    0    12.011    3.239576    4.963838   -1.323035
   2 C     4.0000    0    12.011    4.541938    3.470010    0.513420
   3 C     4.0000    0    12.011    6.346022    4.819690    1.894110
   4 S     6.0000    0    32.060    6.236361    7.749030    0.785597
   5 H     1.0000    0     1.008    1.676660    4.146002   -2.560768
   6 C     4.0000    0    12.011    4.162764    0.502799    1.134743
   7 C     4.0000    0    12.011    1.400514   -0.869350    1.999897
   8 C     4.0000    0    12.011   -0.581336   -2.049219   -0.174478
   9 H     1.0000    0     1.008   -1.294198   -0.398411   -1.413269
  10 H     1.0000    0     1.008    0.534698   -3.449827   -1.424608
  11 H     1.0000    0     1.008    1.915956   -2.505626    3.350825
  12 H     1.0000    0     1.008    0.290281    0.641940    3.124624
  13 H     1.0000    0     1.008    5.596197   -0.150592    2.678290
  14 H     1.0000    0     1.008    4.727282   -0.615352   -0.705945
  15 C     4.0000    0    12.011   -2.976810   -3.488453    1.124633
  16 C     4.0000    0    12.011   -4.933357   -4.794008   -1.026121
  17 C     4.0000    0    12.011   -7.041063   -2.693710   -2.136468
  18 H     1.0000    0     1.008   -8.903558   -3.726748   -2.632596
  19 H     1.0000    0     1.008   -6.223700   -1.748337   -3.932539
  20 H     1.0000    0     1.008   -7.432916   -1.165130   -0.622192
  21 H     1.0000    0     1.008   -3.753109   -5.565659   -2.682561
  22 H     1.0000    0     1.008   -6.013316   -6.426826   -0.073000
  23 H     1.0000    0     1.008   -2.246355   -5.097291    2.413596
  24 H     1.0000    0     1.008   -4.118998   -2.082157    2.342882
  25 H     1.0000    0     1.008    3.309515    8.929617   -2.601019
  26 H     1.0000    0     1.008    7.534792    4.117505    3.345382

--------------------------------
INTERNAL COORDINATES (ANGSTROEM)
--------------------------------
 C      0   0   0     0.000000000000     0.00000000     0.00000000
 C      1   0   0     1.395669650670     0.00000000     0.00000000
 C      2   1   0     1.429781101603   114.10143873     0.00000000
 C      3   2   1     1.398336264173   113.69276642     0.00000000
 S      1   2   3     1.658033661329   105.47988808     0.00000000
 H      2   1   3     1.140318189103   123.85888334   178.30025934
 C      3   2   1     1.616733904822   127.97851027   180.02487575
 C      7   3   2     1.695128385374   125.30727538   303.05992245
 C      8   7   3     1.677394219914   120.88471360    90.23897615
 H      9   8   7     1.155491111779   108.17230233   295.85871909
 H      9   8   7     1.155747756606   108.17099116    53.88496149
 H      8   7   3     1.155508375738   106.53053857   212.49539202
 H      8   7   3     1.157147916258   106.30089645   328.22106338
 H      7   3   2     1.167095319715   110.45018574   177.33544833
 H      7   3   2     1.178185853505   106.74740629    63.28166470
 C      9   8   7     1.630808652356   111.75609948   174.89161709
 C     16   9   8     1.686597635300   112.58187902   182.35172556
 C     17  16   9     1.680631063708   111.86545810   275.58388791
 H     18  17  16     1.157217375993   109.39871057   211.58128212
 H     18  17  16     1.157881024717   108.95319262    91.74013950
 H     18  17  16     1.157330957030   109.81913166   331.84892793
 H     17  16   9     1.151154486461   109.03094804    36.43267103
 H     17  16   9     1.152203245743   108.43740498   155.78080027
 H     16   9   8     1.157356379556   109.41269251   301.86774327
 H     16   9   8     1.155303777238   109.94168536    61.10677594
 H      1   2   3     1.060002763251   127.25939778   179.99985306
 H      4   3   2     1.059997189477   127.20599088   179.99991365

---------------------------
INTERNAL COORDINATES (A.U.)
---------------------------
 C      0   0   0     0.000000000000     0.00000000     0.00000000
 C      1   0   0     2.637433413191     0.00000000     0.00000000
 C      2   1   0     2.701894713485   114.10143873     0.00000000
 C      3   2   1     2.642472582417   113.69276642     0.00000000
 S      1   2   3     3.133229540735   105.47988808     0.00000000
 H      2   1   3     2.154889082934   123.85888334   178.30025934
 C      3   2   1     3.055184311538   127.97851027   180.02487575
 C      7   3   2     3.203328410193   125.30727538   303.05992245
 C      8   7   3     3.169815694259   120.88471360    90.23897615
 H      9   8   7     2.183561751442   108.17230233   295.85871909
 H      9   8   7     2.184046739879   108.17099116    53.88496149
 H      8   7   3     2.183594375596   106.53053857   212.49539202
 H      8   7   3     2.186692658165   106.30089645   328.22106338
 H      7   3   2     2.205490526442   110.45018574   177.33544833
 H      7   3   2     2.226448597985   106.74740629    63.28166470
 C      9   8   7     3.081781729782   111.75609948   174.89161709
 C     16   9   8     3.187207628836   112.58187902   182.35172556
 C     17  16   9     3.175932442569   111.86545810   275.58388791
 H     18  17  16     2.186823918042   109.39871057   211.58128212
 H     18  17  16     2.188078032379   108.95319262    91.74013950
 H     18  17  16     2.187038555096   109.81913166   331.84892793
 H     17  16   9     2.175366717247   109.03094804    36.43267103
 H     17  16   9     2.177348585069   108.43740498   155.78080027
 H     16   9   8     2.187086596708   109.41269251   301.86774327
 H     16   9   8     2.183207740464   109.94168536    61.10677594
 H      1   2   3     2.003114923744   127.25939778   179.99985306
 H      4   3   2     2.003104390839   127.20599088   179.99991365

----------------------------
SLATER BASIS SET DIM=  60
----------------------------
  0 C     2 shells
 l=0 nsto= 1
    2       1.625000000000        1.000000000000
 l=1 nsto= 1
    2       1.625000000000        1.000000000000
  1 C     2 shells
 l=0 nsto= 1
    2       1.625000000000        1.000000000000
 l=1 nsto= 1
    2       1.625000000000        1.000000000000
  2 C     2 shells
 l=0 nsto= 1
    2       1.625000000000        1.000000000000
 l=1 nsto= 1
    2       1.625000000000        1.000000000000
  3 C     2 shells
 l=0 nsto= 1
    2       1.625000000000        1.000000000000
 l=1 nsto= 1
    2       1.625000000000        1.000000000000
  4 S     2 shells
 l=0 nsto= 1
    3       1.925000000000        1.000000000000
 l=1 nsto= 1
    3       1.925000000000        1.000000000000
  5 H     1 shells
 l=0 nsto= 1
    1       1.200000000000        1.000000000000
  6 C     2 shells
 l=0 nsto= 1
    2       1.625000000000        1.000000000000
 l=1 nsto= 1
    2       1.625000000000        1.000000000000
  7 C     2 shells
 l=0 nsto= 1
    2       1.625000000000        1.000000000000
 l=1 nsto= 1
    2       1.625000000000        1.000000000000
  8 C     2 shells
 l=0 nsto= 1
    2       1.625000000000        1.000000000000
 l=1 nsto= 1
    2       1.625000000000        1.000000000000
  9 H     1 shells
 l=0 nsto= 1
    1       1.200000000000        1.000000000000
 10 H     1 shells
 l=0 nsto= 1
    1       1.200000000000        1.000000000000
 11 H     1 shells
 l=0 nsto= 1
    1       1.200000000000        1.000000000000
 12 H     1 shells
 l=0 nsto= 1
    1       1.200000000000        1.000000000000
 13 H     1 shells
 l=0 nsto= 1
    1       1.200000000000        1.000000000000
 14 H     1 shells
 l=0 nsto= 1
    1       1.200000000000        1.000000000000
 15 C     2 shells
 l=0 nsto= 1
    2       1.625000000000        1.000000000000
 l=1 nsto= 1
    2       1.625000000000        1.000000000000
 16 C     2 shells
 l=0 nsto= 1
    2       1.625000000000        1.000000000000
 l=1 nsto= 1
    2       1.625000000000        1.000000000000
 17 C     2 shells
 l=0 nsto= 1
    2       1.625000000000        1.000000000000
 l=1 nsto= 1
    2       1.625000000000        1.000000000000
 18 H     1 shells
 l=0 nsto= 1
    1       1.200000000000        1.000000000000
 19 H     1 shells
 l=0 nsto= 1
    1       1.200000000000        1.000000000000
 20 H     1 shells
 l=0 nsto= 1
    1       1.200000000000        1.000000000000
 21 H     1 shells
 l=0 nsto= 1
    1       1.200000000000        1.000000000000
 22 H     1 shells
 l=0 nsto= 1
    1       1.200000000000        1.000000000000
 23 H     1 shells
 l=0 nsto= 1
    1       1.200000000000        1.000000000000
 24 H     1 shells
 l=0 nsto= 1
    1       1.200000000000        1.000000000000
 25 H     1 shells
 l=0 nsto= 1
    1       1.200000000000        1.000000000000
 26 H     1 shells
 l=0 nsto= 1
    1       1.200000000000        1.000000000000
------------------------------------------------------------------------------
                           ORCA NDO INTEGRAL CALCULATION
------------------------------------------------------------------------------

--------------
NDO PARAMETERS
--------------

Gamma integral treatment              ... Mataga-Nishimoto
Nuclear repulsuion treatment          ... Direct (ZA*ZB/RAB)
Interaction factors:
s-s (sigma) =    1.0000
s-p (sigma) =    1.0000
s-d (sigma) =    1.0000
p-p (sigma) =    1.2670  p-p(pi) =    0.5850
p-d (sigma) =    1.0000  p-d(pi) =    1.0000
d-d (sigma) =    1.0000  d-d(pi) =    1.0000 d-d (delta) =    1.0000

fGamma parameter for Mataga-Nishimoto gamma integrals:    1.2000

--------------------------
Parameters for Element H :
--------------------------
 One-electron parameters (in eV)
  U(s)  =   -13.060000 Beta(s) =    12.000000 Neff(s) =     1.000000
 One-center electron repulsion parameters (in eV)
  G(s,s)=    12.850000
--------------------------
Parameters for Element C :
--------------------------
 One-electron parameters (in eV)
  U(s)  =   -50.870766 Beta(s) =    17.000000 Neff(s) =     2.000000
  U(p)  =   -41.599980 Beta(p) =    17.000000 Neff(p) =     2.000000 
 One-center electron repulsion parameters (in eV)
  G(s,s)=    11.110000
  G(s,p)=    11.110000 G(p,p)  =    11.110000
 Slater-Condon parameters (in eV)
 F2(p,p)=     4.5098 G1(s,p)=    6.8977
--------------------------
Parameters for Element S :
--------------------------
 One-electron parameters (in eV)
  U(s)  =   -69.509597 Beta(s) =    15.000000 Neff(s) =     2.000000
  U(p)  =   -60.725746 Beta(p) =    15.000000 Neff(p) =     4.000000 
 One-center electron repulsion parameters (in eV)
  G(s,s)=    10.090000
  G(s,p)=    10.090000 G(p,p)  =    10.090000
 Slater-Condon parameters (in eV)
 F2(p,p)=     4.5377 G1(s,p)=    3.0756

 Number of atoms                    ....   27
 Number of basis functions          ....   60

 Overlap integrals                  .... done
 One electron matrix                .... done
 Nuclear repulsion                  .... done
 Integral list                      .... done
 Electron-electron repulsion        .... done
-------------------------------------------------------------------------------
                                 ORCA SCF
-------------------------------------------------------------------------------

------------
SCF SETTINGS
------------
Hamiltonian:
 ZDO-Hamiltonian        Method          .... INDO


General Settings:
 Integral files         IntName         .... /home/mattyjones/Software/morphct/tests/output_EZ/donor_polymer/chromophores/input_orca/single/00006
 Hartree-Fock type      HFTyp           .... RHF
 Total Charge           Charge          ....    0
 Multiplicity           Mult            ....    1
 Number of Electrons    NEL             ....   62
 Basis Dimension        Dim             ....   60
 Nuclear Repulsion      ENuc            ....    292.3044891277 Eh

Convergence Acceleration:
 DIIS                   CNVDIIS         .... on
   Start iteration      DIISMaxIt       ....    12
   Startup error        DIISStart       ....  0.200000
   # of expansion vecs  DIISMaxEq       ....     5
   Bias factor          DIISBfac        ....   1.050
   Max. coefficient     DIISMaxC        ....  10.000
 Newton-Raphson         CNVNR           .... off
 SOSCF                  CNVSOSCF        .... on
   Start iteration      SOSCFMaxIt      ....   150
   Startup grad/error   SOSCFStart      ....  0.003300
 Level Shifting         CNVShift        .... on
   Level shift para.    LevelShift      ....    0.2500
   Turn off err/grad.   ShiftErr        ....    0.0010
 Zerner damping         CNVZerner       .... off
 Static damping         CNVDamp         .... on
   Fraction old density DampFac         ....    0.7000
   Max. Damping (<1)    DampMax         ....    0.9800
   Min. Damping (>=0)   DampMin         ....    0.0000
   Turn off err/grad.   DampErr         ....    0.1000
 Fernandez-Rico         CNVRico         .... off

SCF Procedure:
 Maximum # iterations   MaxIter         ....   125
 SCF integral mode      SCFMode         .... Conventional
 Integral Buffer length BufferLength    .... 1048576
 Integral index format  IndFormat       ....     0
 Integral value format  ValFormat       ....     0
 Integral Storage       Thresh          ....  1.000e-08 Eh

Convergence Tolerance:
 Convergence Check Mode ConvCheckMode   .... Total+1el-Energy
 Convergence forced     ConvForced      .... 0
 Energy Change          TolE            ....  1.000e-06 Eh
 1-El. energy change                    ....  1.000e-03 Eh
 Orbital Gradient       TolG            ....  5.000e-05
 Orbital Rotation angle TolX            ....  5.000e-05
 DIIS Error             TolErr          ....  1.000e-06


Diagonalization of the overlap matrix:
Smallest eigenvalue                        ... 1.698e-01
Time for diagonalization                   ...    0.001 sec
Threshold for overlap eigenvalues          ... 1.000e-08
Number of eigenvalues below threshold      ... 0
Time for construction of square roots      ...    0.000 sec
Total time needed                          ...    0.001 sec

-------------------------------
INITIAL GUESS: EXTENDED HUECKEL
-------------------------------
EHT matrix was read from disk
EHT matrix was diagonalized
Initial density was built
                      ------------------
                      INITIAL GUESS DONE
                      ------------------

 InCore treatment chosen:
   Memory dedicated               ...    1024 MB
   Memory needed                  ...      0 MB
   Number of tiny    integrals    ...       0
   Number of small   integrals    ...       0
   Number of regular integrals    ...    1896

--------------
SCF ITERATIONS
--------------
ITER       Energy         Delta-E        Max-DP      RMS-DP      [F,P]     Damp
  0     -7.2988226592   0.000000000000 0.03915599  0.00202755  0.1047690 0.7000
  1     -7.3195375058  -0.020714846602 0.03597363  0.00190724  0.0720953 0.7000
                               ***Turning on DIIS***
  2     -7.3348631660  -0.015325660194 0.08843371  0.00488871  0.0473809 0.0000
  3     -7.3751565161  -0.040293350040 0.01682407  0.00100653  0.0201926 0.0000
  4     -7.3674083170   0.007748199028 0.01098362  0.00068559  0.0066408 0.0000
  5     -7.3758132642  -0.008404947184 0.00717124  0.00046477  0.0037780 0.0000
  6     -7.3772164801  -0.001403215864 0.00472631  0.00033132  0.0019594 0.0000
                      *** Initiating the SOSCF procedure ***
                           *** Shutting down DIIS ***
                      *** Re-Reading the Fockian *** 
                      *** Removing any level shift *** 
ITER      Energy       Delta-E        Grad      Rot      Max-DP    RMS-DP
  7     -7.37507848   0.0021380024  0.002995  0.002995  0.004225  0.000312
  8     -7.37415931   0.0009191668  0.000239  0.000627  0.000463  0.000033
                 **** Energy Check signals convergence ****
              ***Rediagonalizing the Fockian in SOSCF/NRSCF***

               *****************************************************
               *                     SUCCESS                       *
               *           SCF CONVERGED AFTER   9 CYCLES          *
               *****************************************************


----------------
TOTAL SCF ENERGY
----------------

Total Energy       :           -7.37416013 Eh            -200.66110 eV

Components:
Nuclear Repulsion  :          292.30448913 Eh            7954.00952 eV
Electronic Energy  :         -299.67864925 Eh           -8154.67062 eV
One Electron Energy:         -554.11523983 Eh          -15078.24224 eV
Two Electron Energy:          254.43659058 Eh            6923.57162 eV


---------------
SCF CONVERGENCE
---------------

  Last Energy change         ...   -8.1524e-07  Tolerance :   1.0000e-06
  Last MAX-Density change    ...    4.2866e-04  Tolerance :   1.0000e-05
  Last RMS-Density change    ...    2.6166e-05  Tolerance :   1.0000e-06
  Last Orbital Gradient      ...    1.3580e-04  Tolerance :   5.0000e-05
  Last Orbital Rotation      ...    5.4690e-04  Tolerance :   5.0000e-05

             **** THE GBW FILE WAS UPDATED (/home/mattyjones/Software/morphct/tests/output_EZ/donor_polymer/chromophores/input_orca/single/00006.gbw) ****
             **** DENSITY FILE WAS UPDATED (/home/mattyjones/Software/morphct/tests/output_EZ/donor_polymer/chromophores/input_orca/single/00006.scfp.tmp) ****
             **** ENERGY FILE WAS UPDATED (/home/mattyjones/Software/morphct/tests/output_EZ/donor_polymer/chromophores/input_orca/single/00006.en.tmp) ****
----------------
ORBITAL ENERGIES
----------------

  NO   OCC          E(Eh)            E(eV) 
   0   2.0000      -1.555924       -42.3389 
   1   2.0000      -1.408530       -38.3281 
   2   2.0000      -1.294557       -35.2267 
   3   2.0000      -1.185657       -32.2634 
   4   2.0000      -1.105582       -30.0844 
   5   2.0000      -1.031359       -28.0647 
   6   2.0000      -0.967863       -26.3369 
   7   2.0000      -0.891586       -24.2613 
   8   2.0000      -0.872122       -23.7316 
   9   2.0000      -0.831478       -22.6257 
  10   2.0000      -0.774479       -21.0747 
  11   2.0000      -0.732078       -19.9209 
  12   2.0000      -0.700329       -19.0569 
  13   2.0000      -0.678835       -18.4720 
  14   2.0000      -0.628971       -17.1152 
  15   2.0000      -0.610001       -16.5990 
  16   2.0000      -0.607965       -16.5436 
  17   2.0000      -0.575739       -15.6666 
  18   2.0000      -0.558008       -15.1842 
  19   2.0000      -0.553126       -15.0513 
  20   2.0000      -0.537801       -14.6343 
  21   2.0000      -0.513151       -13.9636 
  22   2.0000      -0.504939       -13.7401 
  23   2.0000      -0.493945       -13.4409 
  24   2.0000      -0.493010       -13.4155 
  25   2.0000      -0.476398       -12.9634 
  26   2.0000      -0.471217       -12.8225 
  27   2.0000      -0.465736       -12.6733 
  28   2.0000      -0.438615       -11.9353 
  29   2.0000      -0.357181        -9.7194 
  30   2.0000      -0.304693        -8.2911 
  31   0.0000       0.007577         0.2062 
  32   0.0000       0.066396         1.8067 
  33   0.0000       0.076633         2.0853 
  34   0.0000       0.090526         2.4633 
  35   0.0000       0.105221         2.8632 
  36   0.0000       0.108683         2.9574 
  37   0.0000       0.124546         3.3891 
  38   0.0000       0.141094         3.8394 
  39   0.0000       0.154253         4.1974 
  40   0.0000       0.164386         4.4732 
  41   0.0000       0.171597         4.6694 
  42   0.0000       0.205790         5.5998 
  43   0.0000       0.230364         6.2685 
  44   0.0000       0.233525         6.3545 
  45   0.0000       0.237952         6.4750 
  46   0.0000       0.239040         6.5046 
  47   0.0000       0.241008         6.5582 
  48   0.0000       0.243470         6.6252 
  49   0.0000       0.245065         6.6686 
  50   0.0000       0.252774         6.8783 
  51   0.0000       0.265389         7.2216 
  52   0.0000       0.266977         7.2648 
  53   0.0000       0.284664         7.7461 
  54   0.0000       0.301382         8.2010 
  55   0.0000       0.310127         8.4390 
  56   0.0000       0.337950         9.1961 
  57   0.0000       0.358061         9.7433 
  58   0.0000       0.407367        11.0850 
  59   0.0000       0.434945        11.8355 
-------
TIMINGS
-------

Total SCF time: 0 days 0 hours 0 min 0 sec 

Total time                  ....       0.063 sec
Sum of individual times     ....       0.054 sec  ( 86.5%)

Fock matrix formation       ....       0.038 sec  ( 60.0%)
Diagonalization             ....       0.006 sec  (  9.6%)
Density matrix formation    ....       0.000 sec  (  0.7%)
Population analysis         ....       0.000 sec  (  0.0%)
Initial guess               ....       0.001 sec  (  1.1%)
Orbital Transformation      ....       0.000 sec  (  0.0%)
Orbital Orthonormalization  ....       0.000 sec  (  0.0%)
DIIS solution               ....       0.002 sec  (  2.6%)
SOSCF solution              ....       0.008 sec  ( 12.6%)

-------------------------   --------------------
FINAL SINGLE POINT ENERGY        -7.374160126160
-------------------------   --------------------


                            ***************************************
                            *     ORCA property calculations      *
                            ***************************************

                                    ---------------------
                                    Active property flags
                                    ---------------------
   (+) Dipole Moment


------------------------------------------------------------------------------
                       ORCA ELECTRIC PROPERTIES CALCULATION
------------------------------------------------------------------------------

Dipole Moment Calculation                       ... on
Quadrupole Moment Calculation                   ... off
Polarizability Calculation                      ... off
GBWName                                         ... /home/mattyjones/Software/morphct/tests/output_EZ/donor_polymer/chromophores/input_orca/single/00006.gbw
Electron density file                           ... /home/mattyjones/Software/morphct/tests/output_EZ/donor_polymer/chromophores/input_orca/single/00006.scfp.tmp
The origin for moment calculation is the CENTER OF MASS  = ( 1.684421,  1.910131  0.184649)

-------------
DIPOLE MOMENT
-------------
                                X             Y             Z
Electronic contribution:     90.52570     107.62547      10.81179
Nuclear contribution   :    -48.75900     -57.63944      -5.69849
                        -----------------------------------------
Total Dipole Moment    :     41.76670      49.98603       5.11329
                        -----------------------------------------
Magnitude (a.u.)       :     65.33916
Magnitude (Debye)      :    166.07896


Timings for individual modules:

Sum of individual times         ...        0.098 sec (=   0.002 min)
STO integral calculation        ...        0.017 sec (=   0.000 min)  17.8 %
SCF iterations                  ...        0.080 sec (=   0.001 min)  82.2 %
                             ****ORCA TERMINATED NORMALLY****
TOTAL RUN TIME: 0 days 0 hours 0 minutes 0 seconds 347 msec

