
                                 *****************
                                 * O   R   C   A *
                                 *****************

           --- An Ab Initio, DFT and Semiempirical electronic structure package ---

                  #######################################################
                  #                        -***-                        #
                  #  Department of molecular theory and spectroscopy    #
                  #              Directorship: Frank Neese              #
                  # Max Planck Institute for Chemical Energy Conversion #
                  #                  D-45470 Muelheim/Ruhr              #
                  #                       Germany                       #
                  #                                                     #
                  #                  All rights reserved                #
                  #                        -***-                        #
                  #######################################################


                         Program Version 3.0.3 - RELEASE   -


 With contributions from (in alphabetic order):
   Ute Becker             : Parallelization
   Dmytro Bykov           : SCF Hessian
   Dmitry Ganyushin       : Spin-Orbit,Spin-Spin,Magnetic field MRCI
   Andreas Hansen         : Spin unrestricted coupled pair/coupled cluster methods
   Dimitrios Liakos       : Extrapolation schemes; parallel MDCI
   Robert Izsak           : Overlap fitted RIJCOSX, COSX-SCS-MP3
   Christian Kollmar      : KDIIS, OOCD, Brueckner-CCSD(T), CCSD density
   Simone Kossmann        : Meta GGA functionals, TD-DFT gradient, OOMP2, MP2 Hessian
   Taras Petrenko         : DFT Hessian,TD-DFT gradient, ASA and ECA modules, normal mode analysis, Resonance Raman, ABS, FL, XAS/XES, NRVS
   Christoph Reimann      : Effective Core Potentials
   Michael Roemelt        : Restricted open shell CIS
   Christoph Riplinger    : Improved optimizer, TS searches, QM/MM, DLPNO-CCSD
   Barbara Sandhoefer     : DKH picture change effects
   Igor Schapiro          : Molecular dynamics
   Kantharuban Sivalingam : CASSCF convergence, NEVPT2
   Boris Wezisla          : Elementary symmetry handling
   Frank Wennmohs         : Technical directorship


 We gratefully acknowledge several colleagues who have allowed us to
 interface, adapt or use parts of their codes:
   Stefan Grimme, W. Hujo, H. Kruse, T. Risthaus : VdW corrections, initial TS optimization,
                                                   DFT functionals, gCP
   Ed Valeev                                     : LibInt (2-el integral package), F12 methods
   Garnet Chan, S. Sharma, R. Olivares           : DMRG
   Ulf Ekstrom                                   : XCFun DFT Library
   Mihaly Kallay                                 : mrcc  (arbitrary order and MRCC methods)
   Andreas Klamt, Michael Diedenhofen            : otool_cosmo (COSMO solvation model)
   Frank Weinhold                                : gennbo (NPA and NBO analysis)
   Christopher J. Cramer and Donald G. Truhlar   : smd solvation model


 Your calculation uses the libint2 library for the computation of 2-el integrals
 For citations please refer to: http://libint.valeyev.net

 This ORCA versions uses:
   CBLAS   interface :  Fast vector & matrix operations
   LAPACKE interface :  Fast linear algebra routines
   SCALAPACK package :  Parallel linear algebra routines


leaving
================================================================================
                                        WARNINGS
                       Please study these warnings very carefully!
================================================================================
Now building the actual basis set

WARNING: Direct SCF is incompatible with Method<>HF and Method<>DFT
  ===> : conventional SCF is chosen

WARNING: The NDO methods need Guess=HUECKEL or Guess=HCORE or Guess=MOREAD
  ===> : Guess is set to Hueckel

WARNING: The NDO methods need %rel::SOCType==1
  ===> : %rel::SOCType is set to 1

WARNING: The NDO methods cannot have frozencore=1
  ===> : %method FrozenCore=0 end


INFO   : the flag for use of LIBINT has been found!

================================================================================
                                       INPUT FILE
================================================================================
NAME = /Users/mattyjones/GoogleDrive/Boise/Code/MorphCT/tests/output_EZ/donor_polymer/chromophores/input_orca/single/00009.inp
|  1> # ================================================================
|  2> # Orca input file made by Matty Jones
|  3> # ================================================================
|  4> ! ZINDO/S 
|  5> ! NOPOP
|  6> ! NOMOPRINT
|  7> * xyz 0   1
|  8>  C  -4.90804  -1.16272  0.93632
|  9>  C  -3.64878  -1.02757  0.34990
| 10>  C  -2.56785  -1.45321  1.18338
| 11>  C  -2.97564  -1.92686  2.43425
| 12>  S  -4.62888  -1.79593  2.44305
| 13>  H  -3.29361  -0.05292  -0.20300
| 14>  C  -1.04983  -1.35864  0.63445
| 15>  C  -0.63607  0.14243  -0.07639
| 16>  C  0.89418  0.42654  -0.76765
| 17>  H  0.72014  1.17054  -1.63890
| 18>  H  1.24692  -0.58181  -1.21294
| 19>  H  -1.38026  0.32546  -0.93695
| 20>  H  -0.78493  0.93963  0.74290
| 21>  H  -0.29574  -1.53309  1.50324
| 22>  H  -0.86980  -2.17168  -0.17513
| 23>  C  2.06369  1.01998  0.19374
| 24>  C  3.53748  1.44789  -0.53514
| 25>  C  3.64971  1.33822  -2.21071
| 26>  H  3.47147  0.24428  -2.54003
| 27>  H  4.70833  1.67423  -2.53986
| 28>  H  2.85898  2.02906  -2.69620
| 29>  H  3.76139  2.54186  -0.24474
| 30>  H  4.35205  0.76322  -0.08927
| 31>  H  2.31156  0.23327  1.00649
| 32>  H  1.66630  1.97394  0.71689
| 33>  H  -5.84527  -0.91318  0.50863
| 34>  H  -2.35750  -2.29294  3.21367
| 35> *
| 36> 
| 37>                          ****END OF INPUT****
================================================================================

                       ****************************
                       * Single Point Calculation *
                       ****************************

---------------------------------
CARTESIAN COORDINATES (ANGSTROEM)
---------------------------------
  C     -4.908040   -1.162720    0.936320
  C     -3.648780   -1.027570    0.349900
  C     -2.567850   -1.453210    1.183380
  C     -2.975640   -1.926860    2.434250
  S     -4.628880   -1.795930    2.443050
  H     -3.293610   -0.052920   -0.203000
  C     -1.049830   -1.358640    0.634450
  C     -0.636070    0.142430   -0.076390
  C      0.894180    0.426540   -0.767650
  H      0.720140    1.170540   -1.638900
  H      1.246920   -0.581810   -1.212940
  H     -1.380260    0.325460   -0.936950
  H     -0.784930    0.939630    0.742900
  H     -0.295740   -1.533090    1.503240
  H     -0.869800   -2.171680   -0.175130
  C      2.063690    1.019980    0.193740
  C      3.537480    1.447890   -0.535140
  C      3.649710    1.338220   -2.210710
  H      3.471470    0.244280   -2.540030
  H      4.708330    1.674230   -2.539860
  H      2.858980    2.029060   -2.696200
  H      3.761390    2.541860   -0.244740
  H      4.352050    0.763220   -0.089270
  H      2.311560    0.233270    1.006490
  H      1.666300    1.973940    0.716890
  H     -5.845270   -0.913180    0.508630
  H     -2.357500   -2.292940    3.213670

----------------------------
CARTESIAN COORDINATES (A.U.)
----------------------------
  NO LB      ZA    FRAG    MASS        X           Y           Z
   0 C     4.0000    0    12.011         -9.274851454330859         -2.197222370432918          1.769388373713146
   1 C     4.0000    0    12.011         -6.895194922929185         -1.941825883433461          0.661215174259046
   2 C     4.0000    0    12.011         -4.852533252989686         -2.746168915075702          2.236264112359731
   3 C     4.0000    0    12.011         -5.623144673141433         -3.641237698407503          4.600065841497807
   4 S     6.0000    0    32.060         -8.747315506785403         -3.393815855693194          4.616695431476313
   5 H     1.0000    0     1.008         -6.224020891944374         -0.100004307007113         -0.383614405186014
   6 C     4.0000    0    12.011         -1.983891187174548         -2.567457514590770          1.198936745666338
   7 C     4.0000    0    12.011         -1.201998102003291          0.269153693254404         -0.144356179370244
   8 C     4.0000    0    12.011          1.689755314429705          0.806043785162771         -1.450648266704649
   9 H     1.0000    0     1.008          1.360867378082050          2.212000028800182         -3.097072160883539
  10 H     1.0000    0     1.008          2.356337310909087         -1.099461561976724         -2.292124416878443
  11 H     1.0000    0     1.008         -2.608313393606147          0.615030267546011         -1.770578901177517
  12 H     1.0000    0     1.008         -1.483302734298808          1.775643367216426          1.403877544890098
  13 H     1.0000    0     1.008         -0.558867606845871         -2.897120238653332          2.840711913555782
  14 H     1.0000    0     1.008         -1.643683791284705         -4.103880450514104         -0.330947737833629
  15 C     4.0000    0    12.011          3.899808925311948          1.927482862076998          0.366115541185903
  16 C     4.0000    0    12.011          6.684868404223749          2.736115572043241         -1.011268043306619
  17 C     4.0000    0    12.011          6.896952368233731          2.528869306936097         -4.177636461521050
  18 H     1.0000    0     1.008          6.560127582123608          0.461622299994283         -4.799961071943996
  19 H     1.0000    0     1.008          8.897454248125447          3.163836185194977         -4.799639818501230
  20 H     1.0000    0     1.008          5.402689222358179          3.834367709294255         -5.095079602278479
  21 H     1.0000    0     1.008          7.107996982870056          4.803419270769072         -0.462491574015887
  22 H     1.0000    0     1.008          8.224182621131984          1.442276779931378         -0.168695851975150
  23 H     1.0000    0     1.008          4.368215342127009          0.440816415259810          1.901990456530401
  24 H     1.0000    0     1.008          3.148850656952981          3.730206004792516          1.354725768146806
  25 H     1.0000    0     1.008        -11.045959478825875         -1.725660110974209          0.961171403496366
  26 H     1.0000    0     1.008         -4.455029360719351         -4.333028641513395          6.072956184798709

--------------------------------
INTERNAL COORDINATES (ANGSTROEM)
--------------------------------
 C      0   0   0   0.000000     0.000     0.000
 C      1   0   0   1.395668     0.000     0.000
 C      2   1   0   1.429779   114.102     0.000
 C      3   2   1   1.398325   113.693     0.000
 S      1   2   3   1.658047   105.480     0.000
 H      2   1   3   1.175494   123.404   227.235
 C      3   2   1   1.616989   119.632   179.837
 C      7   3   2   1.711637   114.785    48.035
 C      8   7   3   1.703004   122.147   182.341
 H      9   8   7   1.158837   106.101   148.205
 H      9   8   7   1.157358   106.540    32.821
 H      8   7   3   1.152338   107.057   302.507
 H      8   7   3   1.152789   106.266    59.719
 H      7   3   2   1.163564   110.254   168.358
 H      7   3   2   1.161406   109.951   287.778
 C      9   8   7   1.626098   117.850   270.015
 C     16   9   8   1.698950   117.527   186.038
 C     17  16   9   1.682902   117.943     4.462
 H     18  17  16   1.156255   109.570   299.254
 H     18  17  16   1.158412   108.962   179.428
 H     18  17  16   1.156812   109.472    59.821
 H     17  16   9   1.153793   107.408   125.897
 H     17  16   9   1.153732   107.289   243.157
 H     16   9   8   1.157979   108.722    64.853
 H     16   9   8   1.158294   108.714   307.010
 H      1   2   3   1.059995   127.260   180.000
 H      4   3   2   1.060003   127.206   180.001

---------------------------
INTERNAL COORDINATES (A.U.)
---------------------------
 C      0   0   0   0.000000     0.000     0.000
 C      1   0   0   2.637431     0.000     0.000
 C      2   1   0   2.701891   114.102     0.000
 C      3   2   1   2.642451   113.693     0.000
 S      1   2   3   3.133255   105.480     0.000
 H      2   1   3   2.221362   123.404   227.235
 C      3   2   1   3.055666   119.632   179.837
 C      7   3   2   3.234526   114.785    48.035
 C      8   7   3   3.218212   122.147   182.341
 H      9   8   7   2.189884   106.101   148.205
 H      9   8   7   2.187090   106.540    32.821
 H      8   7   3   2.177603   107.057   302.507
 H      8   7   3   2.178456   106.266    59.719
 H      7   3   2   2.198817   110.254   168.358
 H      7   3   2   2.194740   109.951   287.778
 C      9   8   7   3.072880   117.850   270.015
 C     16   9   8   3.210550   117.527   186.038
 C     17  16   9   3.180223   117.943     4.462
 H     18  17  16   2.185006   109.570   299.254
 H     18  17  16   2.189082   108.962   179.428
 H     18  17  16   2.186058   109.472    59.821
 H     17  16   9   2.180353   107.408   125.897
 H     17  16   9   2.180237   107.289   243.157
 H     16   9   8   2.188263   108.722    64.853
 H     16   9   8   2.188858   108.714   307.010
 H      1   2   3   2.003100   127.260   180.000
 H      4   3   2   2.003116   127.206   180.001

----------------------------
SLATER BASIS SET DIM=  60
----------------------------
  0 C     2 shells
 l=0 nsto= 1
    2       1.625000000000        1.000000000000
 l=1 nsto= 1
    2       1.625000000000        1.000000000000
  1 C     2 shells
 l=0 nsto= 1
    2       1.625000000000        1.000000000000
 l=1 nsto= 1
    2       1.625000000000        1.000000000000
  2 C     2 shells
 l=0 nsto= 1
    2       1.625000000000        1.000000000000
 l=1 nsto= 1
    2       1.625000000000        1.000000000000
  3 C     2 shells
 l=0 nsto= 1
    2       1.625000000000        1.000000000000
 l=1 nsto= 1
    2       1.625000000000        1.000000000000
  4 S     2 shells
 l=0 nsto= 1
    3       1.925000000000        1.000000000000
 l=1 nsto= 1
    3       1.925000000000        1.000000000000
  5 H     1 shells
 l=0 nsto= 1
    1       1.200000000000        1.000000000000
  6 C     2 shells
 l=0 nsto= 1
    2       1.625000000000        1.000000000000
 l=1 nsto= 1
    2       1.625000000000        1.000000000000
  7 C     2 shells
 l=0 nsto= 1
    2       1.625000000000        1.000000000000
 l=1 nsto= 1
    2       1.625000000000        1.000000000000
  8 C     2 shells
 l=0 nsto= 1
    2       1.625000000000        1.000000000000
 l=1 nsto= 1
    2       1.625000000000        1.000000000000
  9 H     1 shells
 l=0 nsto= 1
    1       1.200000000000        1.000000000000
 10 H     1 shells
 l=0 nsto= 1
    1       1.200000000000        1.000000000000
 11 H     1 shells
 l=0 nsto= 1
    1       1.200000000000        1.000000000000
 12 H     1 shells
 l=0 nsto= 1
    1       1.200000000000        1.000000000000
 13 H     1 shells
 l=0 nsto= 1
    1       1.200000000000        1.000000000000
 14 H     1 shells
 l=0 nsto= 1
    1       1.200000000000        1.000000000000
 15 C     2 shells
 l=0 nsto= 1
    2       1.625000000000        1.000000000000
 l=1 nsto= 1
    2       1.625000000000        1.000000000000
 16 C     2 shells
 l=0 nsto= 1
    2       1.625000000000        1.000000000000
 l=1 nsto= 1
    2       1.625000000000        1.000000000000
 17 C     2 shells
 l=0 nsto= 1
    2       1.625000000000        1.000000000000
 l=1 nsto= 1
    2       1.625000000000        1.000000000000
 18 H     1 shells
 l=0 nsto= 1
    1       1.200000000000        1.000000000000
 19 H     1 shells
 l=0 nsto= 1
    1       1.200000000000        1.000000000000
 20 H     1 shells
 l=0 nsto= 1
    1       1.200000000000        1.000000000000
 21 H     1 shells
 l=0 nsto= 1
    1       1.200000000000        1.000000000000
 22 H     1 shells
 l=0 nsto= 1
    1       1.200000000000        1.000000000000
 23 H     1 shells
 l=0 nsto= 1
    1       1.200000000000        1.000000000000
 24 H     1 shells
 l=0 nsto= 1
    1       1.200000000000        1.000000000000
 25 H     1 shells
 l=0 nsto= 1
    1       1.200000000000        1.000000000000
 26 H     1 shells
 l=0 nsto= 1
    1       1.200000000000        1.000000000000
------------------------------------------------------------------------------
                           ORCA NDO INTEGRAL CALCULATION
------------------------------------------------------------------------------

--------------
NDO PARAMETERS
--------------

Gamma integral treatment              ... Mataga-Nishimoto
Nuclear repulsuion treatment          ... Direct (ZA*ZB/RAB)
Interaction factors:
s-s (sigma) =    1.0000
s-p (sigma) =    1.0000
s-d (sigma) =    1.0000
p-p (sigma) =    1.2670  p-p(pi) =    0.5850
p-d (sigma) =    1.0000  p-d(pi) =    1.0000
d-d (sigma) =    1.0000  d-d(pi) =    1.0000 d-d (delta) =    1.0000

fGamma parameter for Mataga-Nishimoto gamma integrals:    1.2000

--------------------------
Parameters for Element H :
--------------------------
 One-electron parameters (in eV)
  U(s)  =   -13.060000 Beta(s) =    12.000000 Neff(s) =     1.000000
 One-center electron repulsion parameters (in eV)
  G(s,s)=    12.850000
--------------------------
Parameters for Element C :
--------------------------
 One-electron parameters (in eV)
  U(s)  =   -50.870766 Beta(s) =    17.000000 Neff(s) =     2.000000
  U(p)  =   -41.599980 Beta(p) =    17.000000 Neff(p) =     2.000000 
 One-center electron repulsion parameters (in eV)
  G(s,s)=    11.110000
  G(s,p)=    11.110000 G(p,p)  =    11.110000
 Slater-Condon parameters (in eV)
 F2(p,p)=     4.5098 G1(s,p)=    6.8977
--------------------------
Parameters for Element S :
--------------------------
 One-electron parameters (in eV)
  U(s)  =   -69.509597 Beta(s) =    15.000000 Neff(s) =     2.000000
  U(p)  =   -60.725746 Beta(p) =    15.000000 Neff(p) =     4.000000 
 One-center electron repulsion parameters (in eV)
  G(s,s)=    10.090000
  G(s,p)=    10.090000 G(p,p)  =    10.090000
 Slater-Condon parameters (in eV)
 F2(p,p)=     4.5377 G1(s,p)=    3.0756

 Number of atoms                    ....   27
 Number of basis functions          ....   60

 Overlap integrals                  .... done
 One electron matrix                .... done
 Nuclear repulsion                  .... done
 Integral list                      .... done
 Electron-electron repulsion        .... done
-------------------------------------------------------------------------------
                                 ORCA SCF
-------------------------------------------------------------------------------

------------
SCF SETTINGS
------------
Hamiltonian:
 ZDO-Hamiltonian        Method          .... INDO


General Settings:
 Integral files         IntName         .... /Users/mattyjones/GoogleDrive/Boise/Code/MorphCT/tests/output_EZ/donor_polymer/chromophores/input_orca/single/00009
 Hartree-Fock type      HFTyp           .... RHF
 Total Charge           Charge          ....    0
 Multiplicity           Mult            ....    1
 Number of Electrons    NEL             ....   62
 Basis Dimension        Dim             ....   60
 Nuclear Repulsion      ENuc            ....    290.8394779814 Eh

Convergence Acceleration:
 DIIS                   CNVDIIS         .... on
   Start iteration      DIISMaxIt       ....    12
   Startup error        DIISStart       ....  0.200000
   # of expansion vecs  DIISMaxEq       ....     5
   Bias factor          DIISBfac        ....   1.050
   Max. coefficient     DIISMaxC        ....  10.000
 Newton-Raphson         CNVNR           .... off
 SOSCF                  CNVSOSCF        .... on
   Start iteration      SOSCFMaxIt      ....   150
   Startup grad/error   SOSCFStart      ....  0.003300
 Level Shifting         CNVShift        .... on
   Level shift para.    LevelShift      ....    0.2500
   Turn off err/grad.   ShiftErr        ....    0.0010
 Zerner damping         CNVZerner       .... off
 Static damping         CNVDamp         .... on
   Fraction old density DampFac         ....    0.7000
   Max. Damping (<1)    DampMax         ....    0.9800
   Min. Damping (>=0)   DampMin         ....    0.0000
   Turn off err/grad.   DampErr         ....    0.1000
 Fernandez-Rico         CNVRico         .... off

SCF Procedure:
 Maximum # iterations   MaxIter         ....   125
 SCF integral mode      SCFMode         .... Conventional
 Integral Buffer length BufferLength    .... 1048576
 Integral index format  IndFormat       ....     0
 Integral value format  ValFormat       ....     0
 Integral Storage       Thresh          ....  1.000e-08 Eh

Convergence Tolerance:
 Convergence Check Mode ConvCheckMode   .... Total+1el-Energy
 Energy Change          TolE            ....  1.000e-06 Eh
 1-El. energy change                    ....  1.000e-03 Eh
 Orbital Gradient       TolG            ....  5.000e-05
 Orbital Rotation angle TolX            ....  5.000e-05
 DIIS Error             TolErr          ....  1.000e-06


Diagonalization of the overlap matrix:
Smallest eigenvalue                        ... 1.684e-01
Time for diagonalization                   ...    0.001 sec
Threshold for overlap eigenvalues          ... 1.000e-08
Number of eigenvalues below threshold      ... 0
Time for construction of square roots      ...    0.000 sec
Total time needed                          ...    0.002 sec

-------------------------------
INITIAL GUESS: EXTENDED HUECKEL
-------------------------------
EHT matrix was read from disk
EHT matrix was diagonalized
Initial density was built
                      ------------------
                      INITIAL GUESS DONE
                      ------------------

 InCore treatment chosen:
   Memory dedicated               ...    1024 MB
   Memory needed                  ...      0 MB
   Number of tiny    integrals    ...       0
   Number of small   integrals    ...       0
   Number of regular integrals    ...    1896

--------------
SCF ITERATIONS
--------------
ITER       Energy         Delta-E        Max-DP      RMS-DP      [F,P]     Damp
  0     -7.3936612477   0.000000000000 0.04789737  0.00216185  0.1251081 0.7000
  1     -7.4165929250  -0.022931677325 0.04680437  0.00204434  0.0856917 0.7000
                               ***Turning on DIIS***
  2     -7.4334895340  -0.016896608994 0.12368170  0.00525142  0.0520985 0.0000
  3     -7.4769415256  -0.043451991671 0.02094090  0.00110043  0.0228728 0.0000
  4     -7.4691593853   0.007782140369 0.01681685  0.00078023  0.0095205 0.0000
  5     -7.4785224149  -0.009363029593 0.01186668  0.00053249  0.0057292 0.0000
  6     -7.4793758141  -0.000853399234 0.00836939  0.00038371  0.0031603 0.0000
  7     -7.4778514106   0.001524403500 0.00467876  0.00022601  0.0018190 0.0000
                      *** Initiating the SOSCF procedure ***
                           *** Shutting down DIIS ***
                      *** Re-Reading the Fockian *** 
                      *** Removing any level shift *** 
ITER      Energy       Delta-E        Grad      Rot      Max-DP    RMS-DP
  8     -7.47730157   0.0005498371  0.001763  0.001763  0.002323  0.000119
  9     -7.47663581   0.0006657587  0.000467  0.001339  0.001220  0.000055
 10     -7.47663855  -0.0000027312  0.000205  0.001394  0.001517  0.000063
 11     -7.47663961  -0.0000010681  0.000037  0.000092  0.000196  0.000007
                 **** Energy Check signals convergence ****
              ***Rediagonalizing the Fockian in SOSCF/NRSCF***

               *****************************************************
               *                     SUCCESS                       *
               *           SCF CONVERGED AFTER  12 CYCLES          *
               *****************************************************


----------------
TOTAL SCF ENERGY
----------------

Total Energy       :           -7.47663965 Eh            -203.44971 eV

Components:
Nuclear Repulsion  :          290.83947798 Eh            7914.14454 eV
Electronic Energy  :         -298.31611763 Eh           -8117.59425 eV

One Electron Energy:         -551.48415307 Eh          -15006.64673 eV
Two Electron Energy:          253.16803544 Eh            6889.05248 eV


---------------
SCF CONVERGENCE
---------------

  Last Energy change         ...   -3.2101e-08  Tolerance :   1.0000e-06
  Last MAX-Density change    ...    6.8288e-05  Tolerance :   1.0000e-05
  Last RMS-Density change    ...    2.4277e-06  Tolerance :   1.0000e-06
  Last Orbital Gradient      ...    1.2113e-05  Tolerance :   5.0000e-05
  Last Orbital Rotation      ...    2.9843e-05  Tolerance :   5.0000e-05

             **** THE GBW FILE WAS UPDATED (/Users/mattyjones/GoogleDrive/Boise/Code/MorphCT/tests/output_EZ/donor_polymer/chromophores/input_orca/single/00009.gbw) ****
             **** DENSITY FILE WAS UPDATED (/Users/mattyjones/GoogleDrive/Boise/Code/MorphCT/tests/output_EZ/donor_polymer/chromophores/input_orca/single/00009.scfp.tmp) ****
             **** ENERGY FILE WAS UPDATED (/Users/mattyjones/GoogleDrive/Boise/Code/MorphCT/tests/output_EZ/donor_polymer/chromophores/input_orca/single/00009.en.tmp) ****
----------------
ORBITAL ENERGIES
----------------

  NO   OCC          E(Eh)            E(eV) 
   0   2.0000      -1.563009       -42.5316 
   1   2.0000      -1.395379       -37.9702 
   2   2.0000      -1.290312       -35.1112 
   3   2.0000      -1.174794       -31.9678 
   4   2.0000      -1.113794       -30.3079 
   5   2.0000      -1.045474       -28.4488 
   6   2.0000      -0.963572       -26.2201 
   7   2.0000      -0.914043       -24.8724 
   8   2.0000      -0.830768       -22.6063 
   9   2.0000      -0.826048       -22.4779 
  10   2.0000      -0.766840       -20.8668 
  11   2.0000      -0.736736       -20.0476 
  12   2.0000      -0.703857       -19.1529 
  13   2.0000      -0.658907       -17.9298 
  14   2.0000      -0.654472       -17.8091 
  15   2.0000      -0.617427       -16.8010 
  16   2.0000      -0.593518       -16.1504 
  17   2.0000      -0.576109       -15.6767 
  18   2.0000      -0.560135       -15.2420 
  19   2.0000      -0.552870       -15.0444 
  20   2.0000      -0.542984       -14.7753 
  21   2.0000      -0.519946       -14.1484 
  22   2.0000      -0.504957       -13.7406 
  23   2.0000      -0.497311       -13.5325 
  24   2.0000      -0.482679       -13.1344 
  25   2.0000      -0.479570       -13.0498 
  26   2.0000      -0.468599       -12.7512 
  27   2.0000      -0.454814       -12.3761 
  28   2.0000      -0.433473       -11.7954 
  29   2.0000      -0.346917        -9.4401 
  30   2.0000      -0.304743        -8.2925 
  31   0.0000       0.001566         0.0426 
  32   0.0000       0.057099         1.5538 
  33   0.0000       0.073783         2.0077 
  34   0.0000       0.090373         2.4592 
  35   0.0000       0.105432         2.8690 
  36   0.0000       0.107025         2.9123 
  37   0.0000       0.125221         3.4074 
  38   0.0000       0.146797         3.9946 
  39   0.0000       0.156338         4.2542 
  40   0.0000       0.169062         4.6004 
  41   0.0000       0.183602         4.9961 
  42   0.0000       0.201528         5.4838 
  43   0.0000       0.236055         6.4234 
  44   0.0000       0.237029         6.4499 
  45   0.0000       0.237546         6.4640 
  46   0.0000       0.238308         6.4847 
  47   0.0000       0.240198         6.5361 
  48   0.0000       0.243318         6.6210 
  49   0.0000       0.245447         6.6789 
  50   0.0000       0.248780         6.7697 
  51   0.0000       0.256375         6.9763 
  52   0.0000       0.265220         7.2170 
  53   0.0000       0.281589         7.6624 
  54   0.0000       0.305048         8.3008 
  55   0.0000       0.308827         8.4036 
  56   0.0000       0.333977         9.0880 
  57   0.0000       0.352750         9.5988 
  58   0.0000       0.415263        11.2999 
  59   0.0000       0.428733        11.6664 
-------
TIMINGS
-------

Total SCF time: 0 days 0 hours 0 min 0 sec 

Total time                  ....       0.093 sec
Sum of individual times     ....       0.082 sec  ( 88.6%)

Fock matrix formation       ....       0.046 sec  ( 49.4%)
Diagonalization             ....       0.005 sec  (  5.8%)
Density matrix formation    ....       0.001 sec  (  0.9%)
Population analysis         ....       0.000 sec  (  0.0%)
Initial guess               ....       0.001 sec  (  0.6%)
Orbital Transformation      ....       0.000 sec  (  0.0%)
Orbital Orthonormalization  ....       0.000 sec  (  0.0%)
DIIS solution               ....       0.028 sec  ( 30.0%)
SOSCF solution              ....       0.002 sec  (  1.9%)

-------------------------   --------------------
FINAL SINGLE POINT ENERGY        -7.476639646244
-------------------------   --------------------


                            ***************************************
                            *     ORCA property calculations      *
                            ***************************************

                                    ---------------------
                                    Active property flags
                                    ---------------------
   (+) Dipole Moment


------------------------------------------------------------------------------
                       ORCA ELECTRIC PROPERTIES CALCULATION
------------------------------------------------------------------------------

Dipole Moment Calculation                       ... on
Quadrupole Moment Calculation                   ... off
Polarizability Calculation                      ... off
GBWName                                         ... /Users/mattyjones/GoogleDrive/Boise/Code/MorphCT/tests/output_EZ/donor_polymer/chromophores/input_orca/single/00009.gbw
Electron density file                           ... /Users/mattyjones/GoogleDrive/Boise/Code/MorphCT/tests/output_EZ/donor_polymer/chromophores/input_orca/single/00009.scfp.tmp

-------------
DIPOLE MOMENT
-------------
                                X             Y             Z
Electronic contribution:   -125.83485     -49.89212      63.54676
Nuclear contribution   :     67.55717      26.93822     -33.99304
                        -----------------------------------------
Total Dipole Moment    :    -58.27768     -22.95390      29.55372
                        -----------------------------------------
Magnitude (a.u.)       :     69.25743
Magnitude (Debye)      :    176.03841


Timings for individual modules:

Sum of individual times         ...        0.158 sec (=   0.003 min)
STO integral calculation        ...        0.034 sec (=   0.001 min)  21.3 %
SCF iterations                  ...        0.124 sec (=   0.002 min)  78.7 %
                             ****ORCA TERMINATED NORMALLY****
TOTAL RUN TIME: 0 days 0 hours 0 minutes 0 seconds 535 msec

