
                                 *****************
                                 * O   R   C   A *
                                 *****************

           --- An Ab Initio, DFT and Semiempirical electronic structure package ---

                  #######################################################
                  #                        -***-                        #
                  #  Department of molecular theory and spectroscopy    #
                  #              Directorship: Frank Neese              #
                  # Max Planck Institute for Chemical Energy Conversion #
                  #                  D-45470 Muelheim/Ruhr              #
                  #                       Germany                       #
                  #                                                     #
                  #                  All rights reserved                #
                  #                        -***-                        #
                  #######################################################


                         Program Version 4.0.1.2 - RELEASE -


 With contributions from (in alphabetic order):
   Daniel Aravena         : Magnetic Properties
   Michael Atanasov       : Ab Initio Ligand Field Theory
   Ute Becker             : Parallelization
   Martin Brehm           : Molecular dynamics
   Dmytro Bykov           : SCF Hessian
   Vijay G. Chilkuri      : MRCI spin determinant printing
   Dipayan Datta          : RHF DLPNO-CCSD density
   Achintya Kumar Dutta   : EOM-CC, STEOM-CC
   Dmitry Ganyushin       : Spin-Orbit,Spin-Spin,Magnetic field MRCI
   Yang Guo               : DLPNO-NEVPT2, CIM, IAO-localization
   Andreas Hansen         : Spin unrestricted coupled pair/coupled cluster methods
   Lee Huntington         : MR-EOM, pCC
   Robert Izsak           : Overlap fitted RIJCOSX, COSX-SCS-MP3, EOM
   Christian Kollmar      : KDIIS, OOCD, Brueckner-CCSD(T), CCSD density
   Simone Kossmann        : Meta GGA functionals, TD-DFT gradient, OOMP2, MP2 Hessian
   Martin Krupicka        : AUTO-CI
   Dagmar Lenk            : GEPOL surface
   Dimitrios Liakos       : Extrapolation schemes; parallel MDCI
   Dimitrios Manganas     : ROCIS; embedding schemes
   Dimitrios Pantazis     : SARC Basis sets
   Taras Petrenko         : DFT Hessian,TD-DFT gradient, ASA, ECA, R-Raman, ABS, FL, XAS/XES, NRVS
   Peter Pinski           : DLPNO-MP2
   Christoph Reimann      : Effective Core Potentials
   Marius Retegan         : Local ZFS, SOC
   Christoph Riplinger    : Optimizer, TS searches, QM/MM, DLPNO-CCSD(T), (RO)-DLPNO pert. Triples
   Tobias Risthaus        : Range-separated hybrids, TD-DFT gradient, RPA, STAB
   Michael Roemelt        : Restricted open shell CIS
   Masaaki Saitow         : Open-shell DLPNO
   Barbara Sandhoefer     : DKH picture change effects
   Kantharuban Sivalingam : CASSCF convergence, NEVPT2, FIC-MRCI
   Georgi Stoychev        : AutoAux
   Boris Wezisla          : Elementary symmetry handling
   Frank Wennmohs         : Technical directorship


 We gratefully acknowledge several colleagues who have allowed us to
 interface, adapt or use parts of their codes:
   Stefan Grimme, W. Hujo, H. Kruse,             : VdW corrections, initial TS optimization,
                  C. Bannwarth                     DFT functionals, gCP, sTDA/sTD-DF
   Ed Valeev                                     : LibInt (2-el integral package), F12 methods
   Garnet Chan, S. Sharma, J. Yang, R. Olivares  : DMRG
   Ulf Ekstrom                                   : XCFun DFT Library
   Mihaly Kallay                                 : mrcc  (arbitrary order and MRCC methods)
   Andreas Klamt, Michael Diedenhofen            : otool_cosmo (COSMO solvation model)
   Jiri Pittner, Ondrej Demel                    : Mk-CCSD
   Frank Weinhold                                : gennbo (NPA and NBO analysis)
   Christopher J. Cramer and Donald G. Truhlar   : smd solvation model


 Your calculation uses the libint2 library for the computation of 2-el integrals
 For citations please refer to: http://libint.valeyev.net

 This ORCA versions uses:
   CBLAS   interface :  Fast vector & matrix operations
   LAPACKE interface :  Fast linear algebra routines
   SCALAPACK package :  Parallel linear algebra routines


leaving
Your calculation utilizes the basis: def2-SVP
   F. Weigend and R. Ahlrichs, Phys. Chem. Chem. Phys. 7, 3297 (2005).

================================================================================
                                        WARNINGS
                       Please study these warnings very carefully!
================================================================================

Warning: TCutStore was < 0. Adjusted to Thresh (uncritical)

WARNING: Direct SCF is incompatible with Method<>HF and Method<>DFT
  ===> : conventional SCF is chosen

WARNING: The NDO methods need Guess=HUECKEL or Guess=HCORE or Guess=MOREAD
  ===> : Guess is set to Hueckel

WARNING: The NDO methods need %rel::SOCType==1
  ===> : %rel::SOCType is set to 1

WARNING: The NDO methods cannot have frozencore=1
  ===> : %method FrozenCore=0 end

INFO   : the flag for use of LIBINT has been found!

================================================================================
                                       INPUT FILE
================================================================================
NAME = /home/mattyjones/Software/morphct/tests/output_EZ/donor_polymer/chromophores/input_orca/single/00007.inp
|  1> # ================================================================
|  2> # Orca input file made by Matty Jones
|  3> # ================================================================
|  4> ! ZINDO/S 
|  5> ! NOPOP
|  6> ! NOMOPRINT
|  7> * xyz 0   1
|  8>  C  -3.30701  -2.03003  2.26246
|  9>  C  -2.11408  -1.79097  1.57862
| 10>  C  -0.94794  -2.26799  2.25452
| 11>  C  -1.22144  -2.88685  3.47825
| 12>  S  -2.86853  -2.81230  3.65706
| 13>  H  -1.90331  -0.67732  1.22596
| 14>  C  0.46770  -2.00424  1.49041
| 15>  C  0.43134  -0.42993  0.72776
| 16>  C  1.39563  0.63161  -0.23439
| 17>  H  1.84003  1.43743  0.45688
| 18>  H  2.23424  0.02585  -0.73106
| 19>  H  -0.40053  -0.64380  -0.05683
| 20>  H  0.06283  0.25865  1.57471
| 21>  H  1.34949  -1.99747  2.24011
| 22>  H  0.65499  -2.79300  0.67124
| 23>  C  0.41998  1.33135  -1.35695
| 24>  C  0.86552  2.70834  -2.24637
| 25>  C  1.57107  2.58722  -3.76980
| 26>  H  1.74640  3.65644  -4.18351
| 27>  H  0.86122  2.01334  -4.48061
| 28>  H  2.58207  2.03390  -3.68602
| 29>  H  -0.11257  3.29184  -2.40132
| 30>  H  1.58876  3.31072  -1.58269
| 31>  H  0.19330  0.52014  -2.15658
| 32>  H  -0.58000  1.60820  -0.83775
| 33>  H  -4.28676  -1.76695  1.95509
| 34>  H  -0.52239  -3.31416  4.15080
| 35> *
| 36> 
| 37>                          ****END OF INPUT****
================================================================================

                       ****************************
                       * Single Point Calculation *
                       ****************************

---------------------------------
CARTESIAN COORDINATES (ANGSTROEM)
---------------------------------
  C     -3.307010   -2.030030    2.262460
  C     -2.114080   -1.790970    1.578620
  C     -0.947940   -2.267990    2.254520
  C     -1.221440   -2.886850    3.478250
  S     -2.868530   -2.812300    3.657060
  H     -1.903310   -0.677320    1.225960
  C      0.467700   -2.004240    1.490410
  C      0.431340   -0.429930    0.727760
  C      1.395630    0.631610   -0.234390
  H      1.840030    1.437430    0.456880
  H      2.234240    0.025850   -0.731060
  H     -0.400530   -0.643800   -0.056830
  H      0.062830    0.258650    1.574710
  H      1.349490   -1.997470    2.240110
  H      0.654990   -2.793000    0.671240
  C      0.419980    1.331350   -1.356950
  C      0.865520    2.708340   -2.246370
  C      1.571070    2.587220   -3.769800
  H      1.746400    3.656440   -4.183510
  H      0.861220    2.013340   -4.480610
  H      2.582070    2.033900   -3.686020
  H     -0.112570    3.291840   -2.401320
  H      1.588760    3.310720   -1.582690
  H      0.193300    0.520140   -2.156580
  H     -0.580000    1.608200   -0.837750
  H     -4.286760   -1.766950    1.955090
  H     -0.522390   -3.314160    4.150800

----------------------------
CARTESIAN COORDINATES (A.U.)
----------------------------
  NO LB      ZA    FRAG     MASS         X           Y           Z
   0 C     4.0000    0    12.011   -6.249343   -3.836201    4.275430
   1 C     4.0000    0    12.011   -3.995032   -3.384443    2.983159
   2 C     4.0000    0    12.011   -1.791347   -4.285880    4.260425
   3 C     4.0000    0    12.011   -2.308187   -5.455356    6.572940
   4 S     6.0000    0    32.060   -5.420736   -5.314477    6.910842
   5 H     1.0000    0     1.008   -3.596735   -1.279949    2.316729
   6 C     4.0000    0    12.011    0.883825   -3.787465    2.816467
   7 C     4.0000    0    12.011    0.815114   -0.812450    1.375267
   8 C     4.0000    0    12.011    2.637358    1.193570   -0.442933
   9 H     1.0000    0     1.008    3.477153    2.716349    0.863378
  10 H     1.0000    0     1.008    4.222102    0.048849   -1.381503
  11 H     1.0000    0     1.008   -0.756892   -1.216606   -0.107393
  12 H     1.0000    0     1.008    0.118731    0.488778    2.975771
  13 H     1.0000    0     1.008    2.550167   -3.774671    4.233194
  14 H     1.0000    0     1.008    1.237752   -5.278005    1.268460
  15 C     4.0000    0    12.011    0.793647    2.515887   -2.564264
  16 C     4.0000    0    12.011    1.635596    5.118021   -4.245024
  17 C     4.0000    0    12.011    2.968892    4.889137   -7.123890
  18 H     1.0000    0     1.008    3.300218    6.909670   -7.905688
  19 H     1.0000    0     1.008    1.627470    3.804661   -8.467126
  20 H     1.0000    0     1.008    4.879405    3.843514   -6.965568
  21 H     1.0000    0     1.008   -0.212726    6.220676   -4.537837
  22 H     1.0000    0     1.008    3.002321    6.256354   -2.990851
  23 H     1.0000    0     1.008    0.365284    0.982922   -4.075346
  24 H     1.0000    0     1.008   -1.096041    3.039058   -1.583118
  25 H     1.0000    0     1.008   -8.100802   -3.339052    3.694585
  26 H     1.0000    0     1.008   -0.987174   -6.262855    7.843875

--------------------------------
INTERNAL COORDINATES (ANGSTROEM)
--------------------------------
 C      0   0   0     0.000000000000     0.00000000     0.00000000
 C      1   0   0     1.395660708804     0.00000000     0.00000000
 C      2   1   0     1.429780189400   114.10191829     0.00000000
 C      3   2   1     1.398322231283   113.69301667     0.00000000
 S      1   2   3     1.658047111303   105.47965510     0.00000000
 H      2   1   3     1.187017013779   117.26084198   232.34739179
 C      3   2   1     1.630173231347   115.63973719   180.17561209
 C      7   3   2     1.749688271722   109.38037733    38.36842604
 C      8   7   3     1.726978574911   141.65647544   180.23719758
 H      9   8   7     1.150952407921   108.13982119   258.65645201
 H      9   8   7     1.147559583900   108.94745668    18.58630784
 H      8   7   3     1.163326928211    98.24554181   294.16517470
 H      8   7   3     1.152070457481   102.94349277    49.26137791
 H      7   3   2     1.157432299100   111.03433403   156.26862515
 H      7   3   2     1.152501353839   111.31858488   279.07334204
 C      9   8   7     1.643675741653   108.10381587   139.64499760
 C     16   9   8     1.698727549697   123.16049112   164.41406055
 C     17  16   9     1.683243839080   121.70046030    94.12609164
 H     18  17  16     1.159796525861   108.65511448   178.02056120
 H     18  17  16     1.156925292748   109.54656570    58.64955961
 H     18  17  16     1.155553162256   109.60677984   297.73293913
 H     17  16   9     1.149409326828   105.00480833   213.83285079
 H     17  16   9     1.151698269687   106.67599959   330.88614342
 H     16   9   8     1.161401577147   106.78133304   285.58231949
 H     16   9   8     1.160247629991   107.91166620    41.30152597
 H      1   2   3     1.059998804622   127.26061878   179.99897355
 H      4   3   2     1.059994453335   127.20627742   179.99962517

---------------------------
INTERNAL COORDINATES (A.U.)
---------------------------
 C      0   0   0     0.000000000000     0.00000000     0.00000000
 C      1   0   0     2.637416515514     0.00000000     0.00000000
 C      2   1   0     2.701892989672   114.10191829     0.00000000
 C      3   2   1     2.642446064098   113.69301667     0.00000000
 S      1   2   3     3.133254957502   105.47965510     0.00000000
 H      2   1   3     2.243137072347   117.26084198   232.34739179
 C      3   2   1     3.080580958095   115.63973719   180.17561209
 C      7   3   2     3.306431653288   109.38037733    38.36842604
 C      8   7   3     3.263516545731   141.65647544   180.23719758
 H      9   8   7     2.174984844149   108.13982119   258.65645201
 H      9   8   7     2.168573335927   108.94745668    18.58630784
 H      8   7   3     2.198369298534    98.24554181   294.16517470
 H      8   7   3     2.177097651620   102.94349277    49.26137791
 H      7   3   2     2.187230063854   111.03433403   156.26862515
 H      7   3   2     2.177911927729   111.31858488   279.07334204
 C      9   8   7     3.106097004695   108.10381587   139.64499760
 C     16   9   8     3.210129845075   123.16049112   164.41406055
 C     17  16   9     3.180869872471   121.70046030    94.12609164
 H     18  17  16     2.191697804951   108.65511448   178.02056120
 H     18  17  16     2.186271960700   109.54656570    58.64955961
 H     18  17  16     2.183679009851   109.60677984   297.73293913
 H     17  16   9     2.172068843480   105.00480833   213.83285079
 H     17  16   9     2.176394318619   106.67599959   330.88614342
 H     16   9   8     2.194730912312   106.78133304   285.58231949
 H     16   9   8     2.192550268214   107.91166620    41.30152597
 H      1   2   3     2.003107443019   127.26061878   179.99897355
 H      4   3   2     2.003099220278   127.20627742   179.99962517

----------------------------
SLATER BASIS SET DIM=  60
----------------------------
  0 C     2 shells
 l=0 nsto= 1
    2       1.625000000000        1.000000000000
 l=1 nsto= 1
    2       1.625000000000        1.000000000000
  1 C     2 shells
 l=0 nsto= 1
    2       1.625000000000        1.000000000000
 l=1 nsto= 1
    2       1.625000000000        1.000000000000
  2 C     2 shells
 l=0 nsto= 1
    2       1.625000000000        1.000000000000
 l=1 nsto= 1
    2       1.625000000000        1.000000000000
  3 C     2 shells
 l=0 nsto= 1
    2       1.625000000000        1.000000000000
 l=1 nsto= 1
    2       1.625000000000        1.000000000000
  4 S     2 shells
 l=0 nsto= 1
    3       1.925000000000        1.000000000000
 l=1 nsto= 1
    3       1.925000000000        1.000000000000
  5 H     1 shells
 l=0 nsto= 1
    1       1.200000000000        1.000000000000
  6 C     2 shells
 l=0 nsto= 1
    2       1.625000000000        1.000000000000
 l=1 nsto= 1
    2       1.625000000000        1.000000000000
  7 C     2 shells
 l=0 nsto= 1
    2       1.625000000000        1.000000000000
 l=1 nsto= 1
    2       1.625000000000        1.000000000000
  8 C     2 shells
 l=0 nsto= 1
    2       1.625000000000        1.000000000000
 l=1 nsto= 1
    2       1.625000000000        1.000000000000
  9 H     1 shells
 l=0 nsto= 1
    1       1.200000000000        1.000000000000
 10 H     1 shells
 l=0 nsto= 1
    1       1.200000000000        1.000000000000
 11 H     1 shells
 l=0 nsto= 1
    1       1.200000000000        1.000000000000
 12 H     1 shells
 l=0 nsto= 1
    1       1.200000000000        1.000000000000
 13 H     1 shells
 l=0 nsto= 1
    1       1.200000000000        1.000000000000
 14 H     1 shells
 l=0 nsto= 1
    1       1.200000000000        1.000000000000
 15 C     2 shells
 l=0 nsto= 1
    2       1.625000000000        1.000000000000
 l=1 nsto= 1
    2       1.625000000000        1.000000000000
 16 C     2 shells
 l=0 nsto= 1
    2       1.625000000000        1.000000000000
 l=1 nsto= 1
    2       1.625000000000        1.000000000000
 17 C     2 shells
 l=0 nsto= 1
    2       1.625000000000        1.000000000000
 l=1 nsto= 1
    2       1.625000000000        1.000000000000
 18 H     1 shells
 l=0 nsto= 1
    1       1.200000000000        1.000000000000
 19 H     1 shells
 l=0 nsto= 1
    1       1.200000000000        1.000000000000
 20 H     1 shells
 l=0 nsto= 1
    1       1.200000000000        1.000000000000
 21 H     1 shells
 l=0 nsto= 1
    1       1.200000000000        1.000000000000
 22 H     1 shells
 l=0 nsto= 1
    1       1.200000000000        1.000000000000
 23 H     1 shells
 l=0 nsto= 1
    1       1.200000000000        1.000000000000
 24 H     1 shells
 l=0 nsto= 1
    1       1.200000000000        1.000000000000
 25 H     1 shells
 l=0 nsto= 1
    1       1.200000000000        1.000000000000
 26 H     1 shells
 l=0 nsto= 1
    1       1.200000000000        1.000000000000
------------------------------------------------------------------------------
                           ORCA NDO INTEGRAL CALCULATION
------------------------------------------------------------------------------

--------------
NDO PARAMETERS
--------------

Gamma integral treatment              ... Mataga-Nishimoto
Nuclear repulsuion treatment          ... Direct (ZA*ZB/RAB)
Interaction factors:
s-s (sigma) =    1.0000
s-p (sigma) =    1.0000
s-d (sigma) =    1.0000
p-p (sigma) =    1.2670  p-p(pi) =    0.5850
p-d (sigma) =    1.0000  p-d(pi) =    1.0000
d-d (sigma) =    1.0000  d-d(pi) =    1.0000 d-d (delta) =    1.0000

fGamma parameter for Mataga-Nishimoto gamma integrals:    1.2000

--------------------------
Parameters for Element H :
--------------------------
 One-electron parameters (in eV)
  U(s)  =   -13.060000 Beta(s) =    12.000000 Neff(s) =     1.000000
 One-center electron repulsion parameters (in eV)
  G(s,s)=    12.850000
--------------------------
Parameters for Element C :
--------------------------
 One-electron parameters (in eV)
  U(s)  =   -50.870766 Beta(s) =    17.000000 Neff(s) =     2.000000
  U(p)  =   -41.599980 Beta(p) =    17.000000 Neff(p) =     2.000000 
 One-center electron repulsion parameters (in eV)
  G(s,s)=    11.110000
  G(s,p)=    11.110000 G(p,p)  =    11.110000
 Slater-Condon parameters (in eV)
 F2(p,p)=     4.5098 G1(s,p)=    6.8977
--------------------------
Parameters for Element S :
--------------------------
 One-electron parameters (in eV)
  U(s)  =   -69.509597 Beta(s) =    15.000000 Neff(s) =     2.000000
  U(p)  =   -60.725746 Beta(p) =    15.000000 Neff(p) =     4.000000 
 One-center electron repulsion parameters (in eV)
  G(s,s)=    10.090000
  G(s,p)=    10.090000 G(p,p)  =    10.090000
 Slater-Condon parameters (in eV)
 F2(p,p)=     4.5377 G1(s,p)=    3.0756

 Number of atoms                    ....   27
 Number of basis functions          ....   60

 Overlap integrals                  .... done
 One electron matrix                .... done
 Nuclear repulsion                  .... done
 Integral list                      .... done
 Electron-electron repulsion        .... done
-------------------------------------------------------------------------------
                                 ORCA SCF
-------------------------------------------------------------------------------

------------
SCF SETTINGS
------------
Hamiltonian:
 ZDO-Hamiltonian        Method          .... INDO


General Settings:
 Integral files         IntName         .... /home/mattyjones/Software/morphct/tests/output_EZ/donor_polymer/chromophores/input_orca/single/00007
 Hartree-Fock type      HFTyp           .... RHF
 Total Charge           Charge          ....    0
 Multiplicity           Mult            ....    1
 Number of Electrons    NEL             ....   62
 Basis Dimension        Dim             ....   60
 Nuclear Repulsion      ENuc            ....    290.2044190461 Eh

Convergence Acceleration:
 DIIS                   CNVDIIS         .... on
   Start iteration      DIISMaxIt       ....    12
   Startup error        DIISStart       ....  0.200000
   # of expansion vecs  DIISMaxEq       ....     5
   Bias factor          DIISBfac        ....   1.050
   Max. coefficient     DIISMaxC        ....  10.000
 Newton-Raphson         CNVNR           .... off
 SOSCF                  CNVSOSCF        .... on
   Start iteration      SOSCFMaxIt      ....   150
   Startup grad/error   SOSCFStart      ....  0.003300
 Level Shifting         CNVShift        .... on
   Level shift para.    LevelShift      ....    0.2500
   Turn off err/grad.   ShiftErr        ....    0.0010
 Zerner damping         CNVZerner       .... off
 Static damping         CNVDamp         .... on
   Fraction old density DampFac         ....    0.7000
   Max. Damping (<1)    DampMax         ....    0.9800
   Min. Damping (>=0)   DampMin         ....    0.0000
   Turn off err/grad.   DampErr         ....    0.1000
 Fernandez-Rico         CNVRico         .... off

SCF Procedure:
 Maximum # iterations   MaxIter         ....   125
 SCF integral mode      SCFMode         .... Conventional
 Integral Buffer length BufferLength    .... 1048576
 Integral index format  IndFormat       ....     0
 Integral value format  ValFormat       ....     0
 Integral Storage       Thresh          ....  1.000e-08 Eh

Convergence Tolerance:
 Convergence Check Mode ConvCheckMode   .... Total+1el-Energy
 Convergence forced     ConvForced      .... 0
 Energy Change          TolE            ....  1.000e-06 Eh
 1-El. energy change                    ....  1.000e-03 Eh
 Orbital Gradient       TolG            ....  5.000e-05
 Orbital Rotation angle TolX            ....  5.000e-05
 DIIS Error             TolErr          ....  1.000e-06


Diagonalization of the overlap matrix:
Smallest eigenvalue                        ... 1.678e-01
Time for diagonalization                   ...    0.001 sec
Threshold for overlap eigenvalues          ... 1.000e-08
Number of eigenvalues below threshold      ... 0
Time for construction of square roots      ...    0.000 sec
Total time needed                          ...    0.001 sec

-------------------------------
INITIAL GUESS: EXTENDED HUECKEL
-------------------------------
EHT matrix was read from disk
EHT matrix was diagonalized
Initial density was built
                      ------------------
                      INITIAL GUESS DONE
                      ------------------

 InCore treatment chosen:
   Memory dedicated               ...    1024 MB
   Memory needed                  ...      0 MB
   Number of tiny    integrals    ...       0
   Number of small   integrals    ...       0
   Number of regular integrals    ...    1896

--------------
SCF ITERATIONS
--------------
ITER       Energy         Delta-E        Max-DP      RMS-DP      [F,P]     Damp
  0     -7.6472669285   0.000000000000 0.04782053  0.00220867  0.1222620 0.7000
  1     -7.6712314345  -0.023964505966 0.04636435  0.00209322  0.0837121 0.7000
                               ***Turning on DIIS***
  2     -7.6888616494  -0.017630214901 0.12137654  0.00537994  0.0508588 0.0000
  3     -7.7317122440  -0.042850594690 0.02183059  0.00111731  0.0225098 0.0000
  4     -7.7254207443   0.006291499788 0.01612027  0.00080342  0.0097067 0.0000
  5     -7.7355788766  -0.010158132317 0.01137677  0.00054654  0.0057609 0.0000
  6     -7.7365969647  -0.001018088104 0.00807219  0.00039649  0.0031774 0.0000
  7     -7.7353218010   0.001275163689 0.00460865  0.00023842  0.0017446 0.0000
                      *** Initiating the SOSCF procedure ***
                           *** Shutting down DIIS ***
                      *** Re-Reading the Fockian *** 
                      *** Removing any level shift *** 
ITER      Energy       Delta-E        Grad      Rot      Max-DP    RMS-DP
  8     -7.73453210   0.0007896964  0.001920  0.001920  0.002564  0.000128
  9     -7.73379011   0.0007419967  0.000518  0.001510  0.001289  0.000060
 10     -7.73379342  -0.0000033095  0.000241  0.001644  0.001563  0.000071
 11     -7.73379476  -0.0000013409  0.000033  0.000071  0.000166  0.000007
                 **** Energy Check signals convergence ****
              ***Rediagonalizing the Fockian in SOSCF/NRSCF***

               *****************************************************
               *                     SUCCESS                       *
               *           SCF CONVERGED AFTER  12 CYCLES          *
               *****************************************************


----------------
TOTAL SCF ENERGY
----------------

Total Energy       :           -7.73379479 Eh            -210.44726 eV

Components:
Nuclear Repulsion  :          290.20441905 Eh            7896.86371 eV
Electronic Energy  :         -297.93821383 Eh           -8107.31097 eV
One Electron Energy:         -550.85238718 Eh          -14989.45550 eV
Two Electron Energy:          252.91417335 Eh            6882.14454 eV


---------------
SCF CONVERGENCE
---------------

  Last Energy change         ...   -3.0072e-08  Tolerance :   1.0000e-06
  Last MAX-Density change    ...    7.3196e-05  Tolerance :   1.0000e-05
  Last RMS-Density change    ...    2.5115e-06  Tolerance :   1.0000e-06
  Last Orbital Gradient      ...    1.3631e-05  Tolerance :   5.0000e-05
  Last Orbital Rotation      ...    2.9496e-05  Tolerance :   5.0000e-05

             **** THE GBW FILE WAS UPDATED (/home/mattyjones/Software/morphct/tests/output_EZ/donor_polymer/chromophores/input_orca/single/00007.gbw) ****
             **** DENSITY FILE WAS UPDATED (/home/mattyjones/Software/morphct/tests/output_EZ/donor_polymer/chromophores/input_orca/single/00007.scfp.tmp) ****
             **** ENERGY FILE WAS UPDATED (/home/mattyjones/Software/morphct/tests/output_EZ/donor_polymer/chromophores/input_orca/single/00007.en.tmp) ****
----------------
ORBITAL ENERGIES
----------------

  NO   OCC          E(Eh)            E(eV) 
   0   2.0000      -1.567291       -42.6482 
   1   2.0000      -1.388910       -37.7942 
   2   2.0000      -1.287926       -35.0463 
   3   2.0000      -1.194911       -32.5152 
   4   2.0000      -1.118078       -30.4244 
   5   2.0000      -1.021700       -27.8019 
   6   2.0000      -0.955570       -26.0024 
   7   2.0000      -0.894979       -24.3536 
   8   2.0000      -0.861640       -23.4464 
   9   2.0000      -0.828224       -22.5371 
  10   2.0000      -0.756614       -20.5885 
  11   2.0000      -0.724573       -19.7166 
  12   2.0000      -0.693329       -18.8664 
  13   2.0000      -0.671281       -18.2665 
  14   2.0000      -0.665019       -18.0961 
  15   2.0000      -0.614804       -16.7297 
  16   2.0000      -0.587502       -15.9867 
  17   2.0000      -0.578695       -15.7471 
  18   2.0000      -0.567550       -15.4438 
  19   2.0000      -0.558533       -15.1985 
  20   2.0000      -0.534535       -14.5454 
  21   2.0000      -0.516809       -14.0631 
  22   2.0000      -0.502077       -13.6622 
  23   2.0000      -0.489051       -13.3078 
  24   2.0000      -0.481043       -13.0898 
  25   2.0000      -0.470718       -12.8089 
  26   2.0000      -0.466785       -12.7019 
  27   2.0000      -0.454525       -12.3682 
  28   2.0000      -0.412192       -11.2163 
  29   2.0000      -0.342636        -9.3236 
  30   2.0000      -0.304543        -8.2870 
  31   0.0000       0.000249         0.0068 
  32   0.0000       0.050066         1.3624 
  33   0.0000       0.062001         1.6871 
  34   0.0000       0.088303         2.4029 
  35   0.0000       0.106082         2.8866 
  36   0.0000       0.107058         2.9132 
  37   0.0000       0.126219         3.4346 
  38   0.0000       0.143817         3.9135 
  39   0.0000       0.157875         4.2960 
  40   0.0000       0.171437         4.6650 
  41   0.0000       0.187389         5.0991 
  42   0.0000       0.203258         5.5309 
  43   0.0000       0.220787         6.0079 
  44   0.0000       0.235664         6.4127 
  45   0.0000       0.239186         6.5086 
  46   0.0000       0.239467         6.5162 
  47   0.0000       0.240196         6.5361 
  48   0.0000       0.242097         6.5878 
  49   0.0000       0.245233         6.6731 
  50   0.0000       0.246486         6.7072 
  51   0.0000       0.252660         6.8752 
  52   0.0000       0.264642         7.2013 
  53   0.0000       0.283922         7.7259 
  54   0.0000       0.308134         8.3848 
  55   0.0000       0.313526         8.5315 
  56   0.0000       0.327421         8.9096 
  57   0.0000       0.355047         9.6613 
  58   0.0000       0.418272        11.3818 
  59   0.0000       0.425763        11.5856 
-------
TIMINGS
-------

Total SCF time: 0 days 0 hours 0 min 0 sec 

Total time                  ....       0.065 sec
Sum of individual times     ....       0.055 sec  ( 85.2%)

Fock matrix formation       ....       0.042 sec  ( 64.5%)
Diagonalization             ....       0.006 sec  (  9.6%)
Density matrix formation    ....       0.000 sec  (  0.8%)
Population analysis         ....       0.000 sec  (  0.0%)
Initial guess               ....       0.001 sec  (  1.0%)
Orbital Transformation      ....       0.000 sec  (  0.0%)
Orbital Orthonormalization  ....       0.000 sec  (  0.0%)
DIIS solution               ....       0.002 sec  (  2.9%)
SOSCF solution              ....       0.004 sec  (  6.4%)

-------------------------   --------------------
FINAL SINGLE POINT ENERGY        -7.733794788375
-------------------------   --------------------


                            ***************************************
                            *     ORCA property calculations      *
                            ***************************************

                                    ---------------------
                                    Active property flags
                                    ---------------------
   (+) Dipole Moment


------------------------------------------------------------------------------
                       ORCA ELECTRIC PROPERTIES CALCULATION
------------------------------------------------------------------------------

Dipole Moment Calculation                       ... on
Quadrupole Moment Calculation                   ... off
Polarizability Calculation                      ... off
GBWName                                         ... /home/mattyjones/Software/morphct/tests/output_EZ/donor_polymer/chromophores/input_orca/single/00007.gbw
Electron density file                           ... /home/mattyjones/Software/morphct/tests/output_EZ/donor_polymer/chromophores/input_orca/single/00007.scfp.tmp
The origin for moment calculation is the CENTER OF MASS  = (-1.301517, -1.493456  1.792074)

-------------
DIPOLE MOMENT
-------------
                                X             Y             Z
Electronic contribution:    -74.40616     -78.70160      98.33870
Nuclear contribution   :     39.76198      42.48637     -52.83168
                        -----------------------------------------
Total Dipole Moment    :    -34.64418     -36.21523      45.50702
                        -----------------------------------------
Magnitude (a.u.)       :     67.69528
Magnitude (Debye)      :    172.06773


Timings for individual modules:

Sum of individual times         ...        0.100 sec (=   0.002 min)
STO integral calculation        ...        0.023 sec (=   0.000 min)  22.9 %
SCF iterations                  ...        0.077 sec (=   0.001 min)  77.1 %
                             ****ORCA TERMINATED NORMALLY****
TOTAL RUN TIME: 0 days 0 hours 0 minutes 0 seconds 427 msec

