
                                 *****************
                                 * O   R   C   A *
                                 *****************

           --- An Ab Initio, DFT and Semiempirical electronic structure package ---

                  #######################################################
                  #                        -***-                        #
                  #  Department of molecular theory and spectroscopy    #
                  #              Directorship: Frank Neese              #
                  # Max Planck Institute for Chemical Energy Conversion #
                  #                  D-45470 Muelheim/Ruhr              #
                  #                       Germany                       #
                  #                                                     #
                  #                  All rights reserved                #
                  #                        -***-                        #
                  #######################################################


                         Program Version 4.0.1.2 - RELEASE -


 With contributions from (in alphabetic order):
   Daniel Aravena         : Magnetic Properties
   Michael Atanasov       : Ab Initio Ligand Field Theory
   Ute Becker             : Parallelization
   Martin Brehm           : Molecular dynamics
   Dmytro Bykov           : SCF Hessian
   Vijay G. Chilkuri      : MRCI spin determinant printing
   Dipayan Datta          : RHF DLPNO-CCSD density
   Achintya Kumar Dutta   : EOM-CC, STEOM-CC
   Dmitry Ganyushin       : Spin-Orbit,Spin-Spin,Magnetic field MRCI
   Yang Guo               : DLPNO-NEVPT2, CIM, IAO-localization
   Andreas Hansen         : Spin unrestricted coupled pair/coupled cluster methods
   Lee Huntington         : MR-EOM, pCC
   Robert Izsak           : Overlap fitted RIJCOSX, COSX-SCS-MP3, EOM
   Christian Kollmar      : KDIIS, OOCD, Brueckner-CCSD(T), CCSD density
   Simone Kossmann        : Meta GGA functionals, TD-DFT gradient, OOMP2, MP2 Hessian
   Martin Krupicka        : AUTO-CI
   Dagmar Lenk            : GEPOL surface
   Dimitrios Liakos       : Extrapolation schemes; parallel MDCI
   Dimitrios Manganas     : ROCIS; embedding schemes
   Dimitrios Pantazis     : SARC Basis sets
   Taras Petrenko         : DFT Hessian,TD-DFT gradient, ASA, ECA, R-Raman, ABS, FL, XAS/XES, NRVS
   Peter Pinski           : DLPNO-MP2
   Christoph Reimann      : Effective Core Potentials
   Marius Retegan         : Local ZFS, SOC
   Christoph Riplinger    : Optimizer, TS searches, QM/MM, DLPNO-CCSD(T), (RO)-DLPNO pert. Triples
   Tobias Risthaus        : Range-separated hybrids, TD-DFT gradient, RPA, STAB
   Michael Roemelt        : Restricted open shell CIS
   Masaaki Saitow         : Open-shell DLPNO
   Barbara Sandhoefer     : DKH picture change effects
   Kantharuban Sivalingam : CASSCF convergence, NEVPT2, FIC-MRCI
   Georgi Stoychev        : AutoAux
   Boris Wezisla          : Elementary symmetry handling
   Frank Wennmohs         : Technical directorship


 We gratefully acknowledge several colleagues who have allowed us to
 interface, adapt or use parts of their codes:
   Stefan Grimme, W. Hujo, H. Kruse,             : VdW corrections, initial TS optimization,
                  C. Bannwarth                     DFT functionals, gCP, sTDA/sTD-DF
   Ed Valeev                                     : LibInt (2-el integral package), F12 methods
   Garnet Chan, S. Sharma, J. Yang, R. Olivares  : DMRG
   Ulf Ekstrom                                   : XCFun DFT Library
   Mihaly Kallay                                 : mrcc  (arbitrary order and MRCC methods)
   Andreas Klamt, Michael Diedenhofen            : otool_cosmo (COSMO solvation model)
   Jiri Pittner, Ondrej Demel                    : Mk-CCSD
   Frank Weinhold                                : gennbo (NPA and NBO analysis)
   Christopher J. Cramer and Donald G. Truhlar   : smd solvation model


 Your calculation uses the libint2 library for the computation of 2-el integrals
 For citations please refer to: http://libint.valeyev.net

 This ORCA versions uses:
   CBLAS   interface :  Fast vector & matrix operations
   LAPACKE interface :  Fast linear algebra routines
   SCALAPACK package :  Parallel linear algebra routines


leaving
Your calculation utilizes the basis: def2-SVP
   F. Weigend and R. Ahlrichs, Phys. Chem. Chem. Phys. 7, 3297 (2005).

================================================================================
                                        WARNINGS
                       Please study these warnings very carefully!
================================================================================

Warning: TCutStore was < 0. Adjusted to Thresh (uncritical)

WARNING: Direct SCF is incompatible with Method<>HF and Method<>DFT
  ===> : conventional SCF is chosen

WARNING: The NDO methods need Guess=HUECKEL or Guess=HCORE or Guess=MOREAD
  ===> : Guess is set to Hueckel

WARNING: The NDO methods need %rel::SOCType==1
  ===> : %rel::SOCType is set to 1

WARNING: The NDO methods cannot have frozencore=1
  ===> : %method FrozenCore=0 end

INFO   : the flag for use of LIBINT has been found!

================================================================================
                                       INPUT FILE
================================================================================
NAME = /home/mattyjones/Software/morphct/tests/output_EZ/donor_polymer/chromophores/input_orca/single/00001.inp
|  1> # ================================================================
|  2> # Orca input file made by Matty Jones
|  3> # ================================================================
|  4> ! ZINDO/S 
|  5> ! NOPOP
|  6> ! NOMOPRINT
|  7> * xyz 0   1
|  8>  C  -4.68940  -1.76189  -2.48411
|  9>  C  -3.50793  -1.09237  -2.16197
| 10>  C  -2.67938  -1.78739  -1.22672
| 11>  C  -3.20927  -3.01189  -0.80824
| 12>  S  -4.65472  -3.16800  -1.60620
| 13>  H  -3.21694  -0.07387  -2.58976
| 14>  C  -1.20699  -1.43688  -0.54690
| 15>  C  -0.23463  -0.16296  0.21070
| 16>  C  1.00947  0.87054  -0.37193
| 17>  H  0.59561  1.38955  -1.31462
| 18>  H  1.88171  0.17273  -0.67670
| 19>  H  0.26247  -0.70017  1.10383
| 20>  H  -1.04054  0.56373  0.60295
| 21>  H  -1.14901  -2.14516  0.37499
| 22>  H  -0.42459  -1.80532  -1.34154
| 23>  C  1.61238  2.01716  0.64595
| 24>  C  2.66075  1.72766  1.97260
| 25>  C  4.34464  1.73353  1.83428
| 26>  H  4.64504  1.80946  0.72174
| 27>  H  4.76263  0.75151  2.28522
| 28>  H  4.77917  2.63405  2.41877
| 29>  H  2.41198  2.56060  2.73723
| 30>  H  2.35628  0.70889  2.41825
| 31>  H  0.70812  2.58393  1.09549
| 32>  H  2.20941  2.75892  -0.01941
| 33>  H  -5.44877  -1.43943  -3.14968
| 34>  H  -2.77750  -3.69692  -0.12420
| 35> *
| 36> 
| 37>                          ****END OF INPUT****
================================================================================

                       ****************************
                       * Single Point Calculation *
                       ****************************

---------------------------------
CARTESIAN COORDINATES (ANGSTROEM)
---------------------------------
  C     -4.689400   -1.761890   -2.484110
  C     -3.507930   -1.092370   -2.161970
  C     -2.679380   -1.787390   -1.226720
  C     -3.209270   -3.011890   -0.808240
  S     -4.654720   -3.168000   -1.606200
  H     -3.216940   -0.073870   -2.589760
  C     -1.206990   -1.436880   -0.546900
  C     -0.234630   -0.162960    0.210700
  C      1.009470    0.870540   -0.371930
  H      0.595610    1.389550   -1.314620
  H      1.881710    0.172730   -0.676700
  H      0.262470   -0.700170    1.103830
  H     -1.040540    0.563730    0.602950
  H     -1.149010   -2.145160    0.374990
  H     -0.424590   -1.805320   -1.341540
  C      1.612380    2.017160    0.645950
  C      2.660750    1.727660    1.972600
  C      4.344640    1.733530    1.834280
  H      4.645040    1.809460    0.721740
  H      4.762630    0.751510    2.285220
  H      4.779170    2.634050    2.418770
  H      2.411980    2.560600    2.737230
  H      2.356280    0.708890    2.418250
  H      0.708120    2.583930    1.095490
  H      2.209410    2.758920   -0.019410
  H     -5.448770   -1.439430   -3.149680
  H     -2.777500   -3.696920   -0.124200

----------------------------
CARTESIAN COORDINATES (A.U.)
----------------------------
  NO LB      ZA    FRAG     MASS         X           Y           Z
   0 C     4.0000    0    12.011   -8.861682   -3.329490   -4.694288
   1 C     4.0000    0    12.011   -6.629027   -2.064280   -4.085531
   2 C     4.0000    0    12.011   -5.063294   -3.377678   -2.318165
   3 C     4.0000    0    12.011   -6.064641   -5.691647   -1.527352
   4 S     6.0000    0    32.060   -8.796146   -5.986652   -3.035278
   5 H     1.0000    0     1.008   -6.079136   -0.139594   -4.893937
   6 C     4.0000    0    12.011   -2.280881   -2.715310   -1.033491
   7 C     4.0000    0    12.011   -0.443386   -0.307950    0.398165
   8 C     4.0000    0    12.011    1.907622    1.645082   -0.702846
   9 H     1.0000    0     1.008    1.125540    2.625869   -2.484272
  10 H     1.0000    0     1.008    3.555917    0.326412   -1.278778
  11 H     1.0000    0     1.008    0.495996   -1.323130    2.085936
  12 H     1.0000    0     1.008   -1.966336    1.065295    1.139410
  13 H     1.0000    0     1.008   -2.171314   -4.053765    0.708628
  14 H     1.0000    0     1.008   -0.802359   -3.411560   -2.535143
  15 C     4.0000    0    12.011    3.046957    3.811880    1.220669
  16 C     4.0000    0    12.011    5.028089    3.264804    3.727674
  17 C     4.0000    0    12.011    8.210180    3.275897    3.466287
  18 H     1.0000    0     1.008    8.777853    3.419384    1.363891
  19 H     1.0000    0     1.008    9.000066    1.420148    4.318440
  20 H     1.0000    0     1.008    9.031322    4.977633    4.570813
  21 H     1.0000    0     1.008    4.557982    4.838833    5.172615
  22 H     1.0000    0     1.008    4.452724    1.339608    4.569830
  23 H     1.0000    0     1.008    1.338153    4.882920    2.070176
  24 H     1.0000    0     1.008    4.175180    5.213603   -0.036680
  25 H     1.0000    0     1.008  -10.296683   -2.720128   -5.952033
  26 H     1.0000    0     1.008   -5.248714   -6.986166   -0.234704

--------------------------------
INTERNAL COORDINATES (ANGSTROEM)
--------------------------------
 C      0   0   0     0.000000000000     0.00000000     0.00000000
 C      1   0   0     1.395672802236     0.00000000     0.00000000
 C      2   1   0     1.429769374899   114.10123204     0.00000000
 C      3   2   1     1.398323700900   113.69338812     0.00000000
 S      1   2   3     1.658033172949   105.48013082     0.00000000
 H      2   1   3     1.142375469887   123.84091453   180.58409646
 C      3   2   1     1.659200049602   132.81048118   179.41786240
 C      7   3   2     1.772657297957   144.45894465    44.36174521
 C      8   7   3     1.719117441276   133.16946735   259.99633018
 H      9   8   7     1.152959633205   106.73572283    53.05042820
 H      9   8   7     1.157854121468   105.78698568   296.99057080
 H      8   7   3     1.154722560185   103.43630903   136.71633937
 H      8   7   3     1.153875793446   102.40153676    23.09446906
 H      7   3   2     1.164003183372   103.89613074   162.59082653
 H      7   3   2     1.174457544231   104.34026144   275.84272828
 C      9   8   7     1.647518615039   118.28426462   176.08013154
 C     16   9   8     1.715485391777   125.73090265    73.91955394
 C     17  16   9     1.689571665068   123.03623631    89.84766685
 H     18  17  16     1.154881282427   109.77531099   352.18926904
 H     18  17  16     1.158631004289   108.94991312   232.06465145
 H     18  17  16     1.158180103179   109.59126644   112.75960288
 H     17  16   9     1.157728203595   104.95298311   209.96404950
 H     17  16   9     1.152908589742   106.65818331   325.40914991
 H     16   9   8     1.158015799590   107.14005299   310.10451277
 H     16   9   8     1.161618116293   106.17773789   194.73073021
 H      1   2   3     1.060003147826   127.25990743   179.99958814
 H      4   3   2     1.060001016698   127.20650524   180.00089562

---------------------------
INTERNAL COORDINATES (A.U.)
---------------------------
 C      0   0   0     0.000000000000     0.00000000     0.00000000
 C      1   0   0     2.637439368788     0.00000000     0.00000000
 C      2   1   0     2.701872553228   114.10123204     0.00000000
 C      3   2   1     2.642448841273   113.69338812     0.00000000
 S      1   2   3     3.133228617830   105.48013082     0.00000000
 H      2   1   3     2.158776780196   123.84091453   180.58409646
 C      3   2   1     3.135433695137   132.81048118   179.41786240
 C      7   3   2     3.349836822435   144.45894465    44.36174521
 C      8   7   3     3.248661156059   133.16946735   259.99633018
 H      9   8   7     2.178777950224   106.73572283    53.05042820
 H      9   8   7     2.188027192606   105.78698568   296.99057080
 H      8   7   3     2.182109399410   103.43630903   136.71633937
 H      8   7   3     2.180509242174   102.40153676    23.09446906
 H      7   3   2     2.199647235585   103.89613074   162.59082653
 H      7   3   2     2.219403114513   104.34026144   275.84272828
 C      9   8   7     3.113358982961   118.28426462   176.08013154
 C     16   9   8     3.241797577201   125.73090265    73.91955394
 C     17  16   9     3.192827730611   123.03623631    89.84766685
 H     18  17  16     2.182409340979   109.77531099   352.18926904
 H     18  17  16     2.189495288377   108.94991312   232.06465145
 H     18  17  16     2.188643208765   109.59126644   112.75960288
 H     17  16   9     2.187789242312   104.95298311   209.96404950
 H     17  16   9     2.178681492057   106.65818331   325.40914991
 H     16   9   8     2.188332719979   107.14005299   310.10451277
 H     16   9   8     2.195140111995   106.17773789   194.73073021
 H      1   2   3     2.003115650485   127.25990743   179.99958814
 H      4   3   2     2.003111623237   127.20650524   180.00089562

----------------------------
SLATER BASIS SET DIM=  60
----------------------------
  0 C     2 shells
 l=0 nsto= 1
    2       1.625000000000        1.000000000000
 l=1 nsto= 1
    2       1.625000000000        1.000000000000
  1 C     2 shells
 l=0 nsto= 1
    2       1.625000000000        1.000000000000
 l=1 nsto= 1
    2       1.625000000000        1.000000000000
  2 C     2 shells
 l=0 nsto= 1
    2       1.625000000000        1.000000000000
 l=1 nsto= 1
    2       1.625000000000        1.000000000000
  3 C     2 shells
 l=0 nsto= 1
    2       1.625000000000        1.000000000000
 l=1 nsto= 1
    2       1.625000000000        1.000000000000
  4 S     2 shells
 l=0 nsto= 1
    3       1.925000000000        1.000000000000
 l=1 nsto= 1
    3       1.925000000000        1.000000000000
  5 H     1 shells
 l=0 nsto= 1
    1       1.200000000000        1.000000000000
  6 C     2 shells
 l=0 nsto= 1
    2       1.625000000000        1.000000000000
 l=1 nsto= 1
    2       1.625000000000        1.000000000000
  7 C     2 shells
 l=0 nsto= 1
    2       1.625000000000        1.000000000000
 l=1 nsto= 1
    2       1.625000000000        1.000000000000
  8 C     2 shells
 l=0 nsto= 1
    2       1.625000000000        1.000000000000
 l=1 nsto= 1
    2       1.625000000000        1.000000000000
  9 H     1 shells
 l=0 nsto= 1
    1       1.200000000000        1.000000000000
 10 H     1 shells
 l=0 nsto= 1
    1       1.200000000000        1.000000000000
 11 H     1 shells
 l=0 nsto= 1
    1       1.200000000000        1.000000000000
 12 H     1 shells
 l=0 nsto= 1
    1       1.200000000000        1.000000000000
 13 H     1 shells
 l=0 nsto= 1
    1       1.200000000000        1.000000000000
 14 H     1 shells
 l=0 nsto= 1
    1       1.200000000000        1.000000000000
 15 C     2 shells
 l=0 nsto= 1
    2       1.625000000000        1.000000000000
 l=1 nsto= 1
    2       1.625000000000        1.000000000000
 16 C     2 shells
 l=0 nsto= 1
    2       1.625000000000        1.000000000000
 l=1 nsto= 1
    2       1.625000000000        1.000000000000
 17 C     2 shells
 l=0 nsto= 1
    2       1.625000000000        1.000000000000
 l=1 nsto= 1
    2       1.625000000000        1.000000000000
 18 H     1 shells
 l=0 nsto= 1
    1       1.200000000000        1.000000000000
 19 H     1 shells
 l=0 nsto= 1
    1       1.200000000000        1.000000000000
 20 H     1 shells
 l=0 nsto= 1
    1       1.200000000000        1.000000000000
 21 H     1 shells
 l=0 nsto= 1
    1       1.200000000000        1.000000000000
 22 H     1 shells
 l=0 nsto= 1
    1       1.200000000000        1.000000000000
 23 H     1 shells
 l=0 nsto= 1
    1       1.200000000000        1.000000000000
 24 H     1 shells
 l=0 nsto= 1
    1       1.200000000000        1.000000000000
 25 H     1 shells
 l=0 nsto= 1
    1       1.200000000000        1.000000000000
 26 H     1 shells
 l=0 nsto= 1
    1       1.200000000000        1.000000000000
------------------------------------------------------------------------------
                           ORCA NDO INTEGRAL CALCULATION
------------------------------------------------------------------------------

--------------
NDO PARAMETERS
--------------

Gamma integral treatment              ... Mataga-Nishimoto
Nuclear repulsuion treatment          ... Direct (ZA*ZB/RAB)
Interaction factors:
s-s (sigma) =    1.0000
s-p (sigma) =    1.0000
s-d (sigma) =    1.0000
p-p (sigma) =    1.2670  p-p(pi) =    0.5850
p-d (sigma) =    1.0000  p-d(pi) =    1.0000
d-d (sigma) =    1.0000  d-d(pi) =    1.0000 d-d (delta) =    1.0000

fGamma parameter for Mataga-Nishimoto gamma integrals:    1.2000

--------------------------
Parameters for Element H :
--------------------------
 One-electron parameters (in eV)
  U(s)  =   -13.060000 Beta(s) =    12.000000 Neff(s) =     1.000000
 One-center electron repulsion parameters (in eV)
  G(s,s)=    12.850000
--------------------------
Parameters for Element C :
--------------------------
 One-electron parameters (in eV)
  U(s)  =   -50.870766 Beta(s) =    17.000000 Neff(s) =     2.000000
  U(p)  =   -41.599980 Beta(p) =    17.000000 Neff(p) =     2.000000 
 One-center electron repulsion parameters (in eV)
  G(s,s)=    11.110000
  G(s,p)=    11.110000 G(p,p)  =    11.110000
 Slater-Condon parameters (in eV)
 F2(p,p)=     4.5098 G1(s,p)=    6.8977
--------------------------
Parameters for Element S :
--------------------------
 One-electron parameters (in eV)
  U(s)  =   -69.509597 Beta(s) =    15.000000 Neff(s) =     2.000000
  U(p)  =   -60.725746 Beta(p) =    15.000000 Neff(p) =     4.000000 
 One-center electron repulsion parameters (in eV)
  G(s,s)=    10.090000
  G(s,p)=    10.090000 G(p,p)  =    10.090000
 Slater-Condon parameters (in eV)
 F2(p,p)=     4.5377 G1(s,p)=    3.0756

 Number of atoms                    ....   27
 Number of basis functions          ....   60

 Overlap integrals                  .... done
 One electron matrix                .... done
 Nuclear repulsion                  .... done
 Integral list                      .... done
 Electron-electron repulsion        .... done
-------------------------------------------------------------------------------
                                 ORCA SCF
-------------------------------------------------------------------------------

------------
SCF SETTINGS
------------
Hamiltonian:
 ZDO-Hamiltonian        Method          .... INDO


General Settings:
 Integral files         IntName         .... /home/mattyjones/Software/morphct/tests/output_EZ/donor_polymer/chromophores/input_orca/single/00001
 Hartree-Fock type      HFTyp           .... RHF
 Total Charge           Charge          ....    0
 Multiplicity           Mult            ....    1
 Number of Electrons    NEL             ....   62
 Basis Dimension        Dim             ....   60
 Nuclear Repulsion      ENuc            ....    281.2819822056 Eh

Convergence Acceleration:
 DIIS                   CNVDIIS         .... on
   Start iteration      DIISMaxIt       ....    12
   Startup error        DIISStart       ....  0.200000
   # of expansion vecs  DIISMaxEq       ....     5
   Bias factor          DIISBfac        ....   1.050
   Max. coefficient     DIISMaxC        ....  10.000
 Newton-Raphson         CNVNR           .... off
 SOSCF                  CNVSOSCF        .... on
   Start iteration      SOSCFMaxIt      ....   150
   Startup grad/error   SOSCFStart      ....  0.003300
 Level Shifting         CNVShift        .... on
   Level shift para.    LevelShift      ....    0.2500
   Turn off err/grad.   ShiftErr        ....    0.0010
 Zerner damping         CNVZerner       .... off
 Static damping         CNVDamp         .... on
   Fraction old density DampFac         ....    0.7000
   Max. Damping (<1)    DampMax         ....    0.9800
   Min. Damping (>=0)   DampMin         ....    0.0000
   Turn off err/grad.   DampErr         ....    0.1000
 Fernandez-Rico         CNVRico         .... off

SCF Procedure:
 Maximum # iterations   MaxIter         ....   125
 SCF integral mode      SCFMode         .... Conventional
 Integral Buffer length BufferLength    .... 1048576
 Integral index format  IndFormat       ....     0
 Integral value format  ValFormat       ....     0
 Integral Storage       Thresh          ....  1.000e-08 Eh

Convergence Tolerance:
 Convergence Check Mode ConvCheckMode   .... Total+1el-Energy
 Convergence forced     ConvForced      .... 0
 Energy Change          TolE            ....  1.000e-06 Eh
 1-El. energy change                    ....  1.000e-03 Eh
 Orbital Gradient       TolG            ....  5.000e-05
 Orbital Rotation angle TolX            ....  5.000e-05
 DIIS Error             TolErr          ....  1.000e-06


Diagonalization of the overlap matrix:
Smallest eigenvalue                        ... 1.699e-01
Time for diagonalization                   ...    0.001 sec
Threshold for overlap eigenvalues          ... 1.000e-08
Number of eigenvalues below threshold      ... 0
Time for construction of square roots      ...    0.000 sec
Total time needed                          ...    0.001 sec

-------------------------------
INITIAL GUESS: EXTENDED HUECKEL
-------------------------------
EHT matrix was read from disk
EHT matrix was diagonalized
Initial density was built
                      ------------------
                      INITIAL GUESS DONE
                      ------------------

 InCore treatment chosen:
   Memory dedicated               ...    1024 MB
   Memory needed                  ...      0 MB
   Number of tiny    integrals    ...       0
   Number of small   integrals    ...       0
   Number of regular integrals    ...    1896

--------------
SCF ITERATIONS
--------------
ITER       Energy         Delta-E        Max-DP      RMS-DP      [F,P]     Damp
  0    -10.3022330759   0.000000000000 0.04103442  0.00203674  0.0846631 0.7000
  1    -10.3231298606  -0.020896784731 0.03825470  0.00191617  0.0601700 0.7000
                               ***Turning on DIIS***
  2    -10.3385991646  -0.015469304006 0.09552709  0.00491219  0.0389854 0.0000
  3    -10.3796994754  -0.041100310758 0.01376588  0.00101588  0.0190202 0.0000
  4    -10.3712855147   0.008413960702 0.00987932  0.00069212  0.0064122 0.0000
  5    -10.3798528462  -0.008567331589 0.00691254  0.00046895  0.0036958 0.0000
  6    -10.3810520169  -0.001199170647 0.00506113  0.00033238  0.0019680 0.0000
                      *** Initiating the SOSCF procedure ***
                           *** Shutting down DIIS ***
                      *** Re-Reading the Fockian *** 
                      *** Removing any level shift *** 
ITER      Energy       Delta-E        Grad      Rot      Max-DP    RMS-DP
  7    -10.37912568   0.0019263359  0.002983  0.002983  0.003023  0.000188
  8    -10.37834922   0.0007764639  0.000797  0.002190  0.001508  0.000088
  9    -10.37835661  -0.0000073898  0.000358  0.002174  0.001692  0.000093
 10    -10.37835932  -0.0000027178  0.000030  0.000049  0.000102  0.000005
                 **** Energy Check signals convergence ****
              ***Rediagonalizing the Fockian in SOSCF/NRSCF***

               *****************************************************
               *                     SUCCESS                       *
               *           SCF CONVERGED AFTER  11 CYCLES          *
               *****************************************************


----------------
TOTAL SCF ENERGY
----------------

Total Energy       :          -10.37835935 Eh            -282.40952 eV

Components:
Nuclear Repulsion  :          281.28198221 Eh            7654.07186 eV
Electronic Energy  :         -291.66034155 Eh           -7936.48138 eV
One Electron Energy:         -538.30377159 Eh          -14647.99031 eV
Two Electron Energy:          246.64343004 Eh            6711.50894 eV


---------------
SCF CONVERGENCE
---------------

  Last Energy change         ...   -2.2076e-08  Tolerance :   1.0000e-06
  Last MAX-Density change    ...    2.4997e-05  Tolerance :   1.0000e-05
  Last RMS-Density change    ...    1.3006e-06  Tolerance :   1.0000e-06
  Last Orbital Gradient      ...    5.2457e-06  Tolerance :   5.0000e-05
  Last Orbital Rotation      ...    1.2246e-05  Tolerance :   5.0000e-05

             **** THE GBW FILE WAS UPDATED (/home/mattyjones/Software/morphct/tests/output_EZ/donor_polymer/chromophores/input_orca/single/00001.gbw) ****
             **** DENSITY FILE WAS UPDATED (/home/mattyjones/Software/morphct/tests/output_EZ/donor_polymer/chromophores/input_orca/single/00001.scfp.tmp) ****
             **** ENERGY FILE WAS UPDATED (/home/mattyjones/Software/morphct/tests/output_EZ/donor_polymer/chromophores/input_orca/single/00001.en.tmp) ****
----------------
ORBITAL ENERGIES
----------------

  NO   OCC          E(Eh)            E(eV) 
   0   2.0000      -1.554800       -42.3083 
   1   2.0000      -1.371189       -37.3119 
   2   2.0000      -1.273507       -34.6539 
   3   2.0000      -1.197448       -32.5842 
   4   2.0000      -1.106792       -30.1173 
   5   2.0000      -1.038891       -28.2697 
   6   2.0000      -0.980334       -26.6762 
   7   2.0000      -0.915232       -24.9047 
   8   2.0000      -0.840590       -22.8736 
   9   2.0000      -0.826339       -22.4858 
  10   2.0000      -0.768150       -20.9024 
  11   2.0000      -0.719280       -19.5726 
  12   2.0000      -0.688695       -18.7403 
  13   2.0000      -0.660683       -17.9781 
  14   2.0000      -0.643995       -17.5240 
  15   2.0000      -0.624572       -16.9955 
  16   2.0000      -0.586785       -15.9672 
  17   2.0000      -0.573251       -15.5989 
  18   2.0000      -0.571024       -15.5384 
  19   2.0000      -0.555531       -15.1168 
  20   2.0000      -0.541807       -14.7433 
  21   2.0000      -0.515370       -14.0239 
  22   2.0000      -0.503964       -13.7136 
  23   2.0000      -0.495581       -13.4854 
  24   2.0000      -0.488615       -13.2959 
  25   2.0000      -0.472458       -12.8562 
  26   2.0000      -0.449521       -12.2321 
  27   2.0000      -0.445241       -12.1156 
  28   2.0000      -0.434010       -11.8100 
  29   2.0000      -0.358933        -9.7671 
  30   2.0000      -0.305860        -8.3229 
  31   0.0000       0.005204         0.1416 
  32   0.0000       0.038175         1.0388 
  33   0.0000       0.071363         1.9419 
  34   0.0000       0.075763         2.0616 
  35   0.0000       0.097449         2.6517 
  36   0.0000       0.106311         2.8929 
  37   0.0000       0.122594         3.3359 
  38   0.0000       0.141312         3.8453 
  39   0.0000       0.158801         4.3212 
  40   0.0000       0.166293         4.5251 
  41   0.0000       0.173553         4.7226 
  42   0.0000       0.201636         5.4868 
  43   0.0000       0.226715         6.1692 
  44   0.0000       0.233108         6.3432 
  45   0.0000       0.236227         6.4281 
  46   0.0000       0.237117         6.4523 
  47   0.0000       0.239139         6.5073 
  48   0.0000       0.239809         6.5255 
  49   0.0000       0.242437         6.5971 
  50   0.0000       0.243703         6.6315 
  51   0.0000       0.245874         6.6906 
  52   0.0000       0.264379         7.1941 
  53   0.0000       0.272119         7.4047 
  54   0.0000       0.297670         8.1000 
  55   0.0000       0.308275         8.3886 
  56   0.0000       0.345344         9.3973 
  57   0.0000       0.361911         9.8481 
  58   0.0000       0.400542        10.8993 
  59   0.0000       0.437464        11.9040 
-------
TIMINGS
-------

Total SCF time: 0 days 0 hours 0 min 0 sec 

Total time                  ....       0.062 sec
Sum of individual times     ....       0.054 sec  ( 87.0%)

Fock matrix formation       ....       0.033 sec  ( 53.1%)
Diagonalization             ....       0.006 sec  (  8.9%)
Density matrix formation    ....       0.000 sec  (  0.7%)
Population analysis         ....       0.000 sec  (  0.0%)
Initial guess               ....       0.001 sec  (  1.2%)
Orbital Transformation      ....       0.000 sec  (  0.0%)
Orbital Orthonormalization  ....       0.000 sec  (  0.0%)
DIIS solution               ....       0.002 sec  (  2.6%)
SOSCF solution              ....       0.013 sec  ( 20.5%)

-------------------------   --------------------
FINAL SINGLE POINT ENERGY       -10.378359346792
-------------------------   --------------------


                            ***************************************
                            *     ORCA property calculations      *
                            ***************************************

                                    ---------------------
                                    Active property flags
                                    ---------------------
   (+) Dipole Moment


------------------------------------------------------------------------------
                       ORCA ELECTRIC PROPERTIES CALCULATION
------------------------------------------------------------------------------

Dipole Moment Calculation                       ... on
Quadrupole Moment Calculation                   ... off
Polarizability Calculation                      ... off
GBWName                                         ... /home/mattyjones/Software/morphct/tests/output_EZ/donor_polymer/chromophores/input_orca/single/00001.gbw
Electron density file                           ... /home/mattyjones/Software/morphct/tests/output_EZ/donor_polymer/chromophores/input_orca/single/00001.scfp.tmp
The origin for moment calculation is the CENTER OF MASS  = (-2.351912, -1.463414 -0.922802)

-------------
DIPOLE MOMENT
-------------
                                X             Y             Z
Electronic contribution:   -126.05230     -82.46214     -46.27016
Nuclear contribution   :     68.38761      44.33233      25.39073
                        -----------------------------------------
Total Dipole Moment    :    -57.66469     -38.12981     -20.87943
                        -----------------------------------------
Magnitude (a.u.)       :     72.21530
Magnitude (Debye)      :    183.55671


Timings for individual modules:

Sum of individual times         ...        0.095 sec (=   0.002 min)
STO integral calculation        ...        0.019 sec (=   0.000 min)  20.0 %
SCF iterations                  ...        0.076 sec (=   0.001 min)  80.0 %
                             ****ORCA TERMINATED NORMALLY****
TOTAL RUN TIME: 0 days 0 hours 0 minutes 0 seconds 372 msec

