
                                 *****************
                                 * O   R   C   A *
                                 *****************

           --- An Ab Initio, DFT and Semiempirical electronic structure package ---

                  #######################################################
                  #                        -***-                        #
                  #  Department of molecular theory and spectroscopy    #
                  #              Directorship: Frank Neese              #
                  # Max Planck Institute for Chemical Energy Conversion #
                  #                  D-45470 Muelheim/Ruhr              #
                  #                       Germany                       #
                  #                                                     #
                  #                  All rights reserved                #
                  #                        -***-                        #
                  #######################################################


                         Program Version 3.0.3 - RELEASE   -


 With contributions from (in alphabetic order):
   Ute Becker             : Parallelization
   Dmytro Bykov           : SCF Hessian
   Dmitry Ganyushin       : Spin-Orbit,Spin-Spin,Magnetic field MRCI
   Andreas Hansen         : Spin unrestricted coupled pair/coupled cluster methods
   Dimitrios Liakos       : Extrapolation schemes; parallel MDCI
   Robert Izsak           : Overlap fitted RIJCOSX, COSX-SCS-MP3
   Christian Kollmar      : KDIIS, OOCD, Brueckner-CCSD(T), CCSD density
   Simone Kossmann        : Meta GGA functionals, TD-DFT gradient, OOMP2, MP2 Hessian
   Taras Petrenko         : DFT Hessian,TD-DFT gradient, ASA and ECA modules, normal mode analysis, Resonance Raman, ABS, FL, XAS/XES, NRVS
   Christoph Reimann      : Effective Core Potentials
   Michael Roemelt        : Restricted open shell CIS
   Christoph Riplinger    : Improved optimizer, TS searches, QM/MM, DLPNO-CCSD
   Barbara Sandhoefer     : DKH picture change effects
   Igor Schapiro          : Molecular dynamics
   Kantharuban Sivalingam : CASSCF convergence, NEVPT2
   Boris Wezisla          : Elementary symmetry handling
   Frank Wennmohs         : Technical directorship


 We gratefully acknowledge several colleagues who have allowed us to
 interface, adapt or use parts of their codes:
   Stefan Grimme, W. Hujo, H. Kruse, T. Risthaus : VdW corrections, initial TS optimization,
                                                   DFT functionals, gCP
   Ed Valeev                                     : LibInt (2-el integral package), F12 methods
   Garnet Chan, S. Sharma, R. Olivares           : DMRG
   Ulf Ekstrom                                   : XCFun DFT Library
   Mihaly Kallay                                 : mrcc  (arbitrary order and MRCC methods)
   Andreas Klamt, Michael Diedenhofen            : otool_cosmo (COSMO solvation model)
   Frank Weinhold                                : gennbo (NPA and NBO analysis)
   Christopher J. Cramer and Donald G. Truhlar   : smd solvation model


 Your calculation uses the libint2 library for the computation of 2-el integrals
 For citations please refer to: http://libint.valeyev.net

 This ORCA versions uses:
   CBLAS   interface :  Fast vector & matrix operations
   LAPACKE interface :  Fast linear algebra routines
   SCALAPACK package :  Parallel linear algebra routines


leaving
================================================================================
                                        WARNINGS
                       Please study these warnings very carefully!
================================================================================
Now building the actual basis set

WARNING: Direct SCF is incompatible with Method<>HF and Method<>DFT
  ===> : conventional SCF is chosen

WARNING: The NDO methods need Guess=HUECKEL or Guess=HCORE or Guess=MOREAD
  ===> : Guess is set to Hueckel

WARNING: The NDO methods need %rel::SOCType==1
  ===> : %rel::SOCType is set to 1

WARNING: The NDO methods cannot have frozencore=1
  ===> : %method FrozenCore=0 end


INFO   : the flag for use of LIBINT has been found!

================================================================================
                                       INPUT FILE
================================================================================
NAME = /Users/mattyjones/GoogleDrive/Boise/Code/MorphCT/tests/output_EZ/donor_polymer/chromophores/input_orca/single/00018.inp
|  1> # ================================================================
|  2> # Orca input file made by Matty Jones
|  3> # ================================================================
|  4> ! ZINDO/S 
|  5> ! NOPOP
|  6> ! NOMOPRINT
|  7> * xyz 0   1
|  8>  C  -1.23961  -2.17292  -3.79405
|  9>  C  -0.65824  -1.83757  -2.57036
| 10>  C  -1.38425  -0.85385  -1.82910
| 11>  C  -2.54477  -0.41018  -2.47072
| 12>  S  -2.61059  -1.24662  -3.90127
| 13>  H  0.05243  -2.52878  -1.99296
| 14>  C  -0.70200  -0.46531  -0.42666
| 15>  C  0.95219  -0.11777  -0.70688
| 16>  C  1.98824  0.12998  0.59068
| 17>  H  3.06410  0.14252  0.14926
| 18>  H  1.89919  -0.80624  1.26831
| 19>  H  1.41744  -0.97882  -1.31623
| 20>  H  0.96887  0.84388  -1.34693
| 21>  H  -1.19908  0.47738  0.02358
| 22>  H  -0.76803  -1.34263  0.32771
| 23>  C  1.78601  1.47397  1.47178
| 24>  C  0.89913  1.13956  2.87526
| 25>  C  -0.76810  1.22545  2.70021
| 26>  H  -1.03684  2.04390  1.92879
| 27>  H  -1.24178  1.48939  3.72393
| 28>  H  -1.17325  0.20062  2.34719
| 29>  H  1.16789  0.07810  3.23680
| 30>  H  1.21771  1.90275  3.67879
| 31>  H  1.21899  2.27574  0.86426
| 32>  H  2.81219  1.89981  1.79043
| 33>  H  -0.88043  -2.87232  -4.50498
| 34>  H  -3.23741  0.30997  -2.11686
| 35> *
| 36> 
| 37>                          ****END OF INPUT****
================================================================================

                       ****************************
                       * Single Point Calculation *
                       ****************************

---------------------------------
CARTESIAN COORDINATES (ANGSTROEM)
---------------------------------
  C     -1.239610   -2.172920   -3.794050
  C     -0.658240   -1.837570   -2.570360
  C     -1.384250   -0.853850   -1.829100
  C     -2.544770   -0.410180   -2.470720
  S     -2.610590   -1.246620   -3.901270
  H      0.052430   -2.528780   -1.992960
  C     -0.702000   -0.465310   -0.426660
  C      0.952190   -0.117770   -0.706880
  C      1.988240    0.129980    0.590680
  H      3.064100    0.142520    0.149260
  H      1.899190   -0.806240    1.268310
  H      1.417440   -0.978820   -1.316230
  H      0.968870    0.843880   -1.346930
  H     -1.199080    0.477380    0.023580
  H     -0.768030   -1.342630    0.327710
  C      1.786010    1.473970    1.471780
  C      0.899130    1.139560    2.875260
  C     -0.768100    1.225450    2.700210
  H     -1.036840    2.043900    1.928790
  H     -1.241780    1.489390    3.723930
  H     -1.173250    0.200620    2.347190
  H      1.167890    0.078100    3.236800
  H      1.217710    1.902750    3.678790
  H      1.218990    2.275740    0.864260
  H      2.812190    1.899810    1.790430
  H     -0.880430   -2.872320   -4.504980
  H     -3.237410    0.309970   -2.116860

----------------------------
CARTESIAN COORDINATES (A.U.)
----------------------------
  NO LB      ZA    FRAG    MASS        X           Y           Z
   0 C     4.0000    0    12.011         -2.342523412870123         -4.106223710920166         -7.169715438403925
   1 C     4.0000    0    12.011         -1.243893330392325         -3.472504051909674         -4.857276465585828
   2 C     4.0000    0    12.011         -2.615853400880493         -1.613542659448661         -3.456498071555361
   3 C     4.0000    0    12.011         -4.808918373818784         -0.775127865611819         -4.668984153601915
   4 S     6.0000    0    32.060         -4.933300147953481         -2.355770393068911         -7.372331874482961
   5 H     1.0000    0     1.008          0.099078341201491         -4.778701652937382         -3.766148595859698
   6 C     4.0000    0    12.011         -1.326587746012719         -0.879308467374898         -0.806270552298841
   7 C     4.0000    0    12.011          1.799378327458476         -0.222553046791906         -1.335809609546254
   8 C     4.0000    0    12.011          3.757229088507589          0.245626602887084          1.116223432784605
   9 H     1.0000    0     1.008          5.790309846948107          0.269323768606457          0.282060522749086
  10 H     1.0000    0     1.008          3.588948976281902         -1.523572798212670          2.396758552913663
  11 H     1.0000    0     1.008          2.678573411265339         -1.849701734404800         -2.487314229251169
  12 H     1.0000    0     1.008          1.830898959372283          1.594702089893466         -2.545328821562551
  13 H     1.0000    0     1.008         -2.265932812662294          0.902117461811327          0.044559742237863
  14 H     1.0000    0     1.008         -1.451366362635539         -2.537202999186690          0.619282151347333
  15 C     4.0000    0    12.011          3.375069772444695          2.785399629615907          2.781261129382620
  16 C     4.0000    0    12.011          1.699109458792615          2.153456313171301          5.433453963818418
  17 C     4.0000    0    12.011         -1.451498643464913          2.315764890813798          5.102657404075503
  18 H     1.0000    0     1.008         -1.959343644694911          3.862411245121646          3.644884869845971
  19 H     1.0000    0     1.008         -2.346624118580732          2.814539206600973          7.037207841893367
  20 H     1.0000    0     1.008         -2.217121186623108          0.379116856987281          4.435546284278622
  21 H     1.0000    0     1.008          2.206992254545291          0.147587611059250          6.116665550276307
  22 H     1.0000    0     1.008          2.301138410537248          3.595676401318662          6.951905604208161
  23 H     1.0000    0     1.008          2.303557259988667          4.300525352009949          1.633214708502781
  24 H     1.0000    0     1.008          5.314268936552005          3.590120606484933          3.383422361956626
  25 H     1.0000    0     1.008         -1.663771580088288         -5.427898168984690         -8.513178438792560
  26 H     1.0000    0     1.008         -6.117818283218000          0.585758409731570         -4.000285663852541

--------------------------------
INTERNAL COORDINATES (ANGSTROEM)
--------------------------------
 C      0   0   0   0.000000     0.000     0.000
 C      1   0   0   1.395660     0.000     0.000
 C      2   1   0   1.429777   114.102     0.000
 C      3   2   1   1.398330   113.693     0.000
 S      1   2   3   1.658045   105.480     0.000
 H      2   1   3   1.147264   123.679   156.122
 C      3   2   1   1.607254   113.776   180.445
 C      7   3   2   1.713374   108.430    49.580
 C      8   7   3   1.678821   119.956   187.895
 H      9   8   7   1.162963   106.209   169.497
 H      9   8   7   1.159146   106.573    55.023
 H      8   7   3   1.152897   108.939   309.687
 H      8   7   3   1.155298   105.866    66.595
 H      7   3   2   1.156922   110.743   168.213
 H      7   3   2   1.158932   111.148   290.571
 C      9   8   7   1.619736   117.765   290.925
 C     16   9   8   1.693559   110.631    98.616
 C     17  16   9   1.678593   115.063   272.672
 H     18  17  16   1.156361   109.671   326.769
 H     18  17  16   1.158464   109.003   206.941
 H     18  17  16   1.157172   109.527    87.571
 H     17  16   9   1.153100   108.635    34.029
 H     17  16   9   1.153088   107.585   151.946
 H     16   9   8   1.154741   110.563   338.496
 H     16   9   8   1.155821   110.171   217.977
 H      1   2   3   1.059996   127.261   180.000
 H      4   3   2   1.059992   127.207   180.000

---------------------------
INTERNAL COORDINATES (A.U.)
---------------------------
 C      0   0   0   0.000000     0.000     0.000
 C      1   0   0   2.637416     0.000     0.000
 C      2   1   0   2.701887   114.102     0.000
 C      3   2   1   2.642460   113.693     0.000
 S      1   2   3   3.133251   105.480     0.000
 H      2   1   3   2.168014   123.679   156.122
 C      3   2   1   3.037270   113.776   180.445
 C      7   3   2   3.237808   108.430    49.580
 C      8   7   3   3.172513   119.956   187.895
 H      9   8   7   2.197682   106.209   169.497
 H      9   8   7   2.190469   106.573    55.023
 H      8   7   3   2.178660   108.939   309.687
 H      8   7   3   2.183196   105.866    66.595
 H      7   3   2   2.186266   110.743   168.213
 H      7   3   2   2.190065   111.148   290.571
 C      9   8   7   3.060857   117.765   290.925
 C     16   9   8   3.200363   110.631    98.616
 C     17  16   9   3.172082   115.063   272.672
 H     18  17  16   2.185205   109.671   326.769
 H     18  17  16   2.189180   109.003   206.941
 H     18  17  16   2.186737   109.527    87.571
 H     17  16   9   2.179044   108.635    34.029
 H     17  16   9   2.179021   107.585   151.946
 H     16   9   8   2.182145   110.563   338.496
 H     16   9   8   2.184186   110.171   217.977
 H      1   2   3   2.003103   127.261   180.000
 H      4   3   2   2.003095   127.207   180.000

----------------------------
SLATER BASIS SET DIM=  60
----------------------------
  0 C     2 shells
 l=0 nsto= 1
    2       1.625000000000        1.000000000000
 l=1 nsto= 1
    2       1.625000000000        1.000000000000
  1 C     2 shells
 l=0 nsto= 1
    2       1.625000000000        1.000000000000
 l=1 nsto= 1
    2       1.625000000000        1.000000000000
  2 C     2 shells
 l=0 nsto= 1
    2       1.625000000000        1.000000000000
 l=1 nsto= 1
    2       1.625000000000        1.000000000000
  3 C     2 shells
 l=0 nsto= 1
    2       1.625000000000        1.000000000000
 l=1 nsto= 1
    2       1.625000000000        1.000000000000
  4 S     2 shells
 l=0 nsto= 1
    3       1.925000000000        1.000000000000
 l=1 nsto= 1
    3       1.925000000000        1.000000000000
  5 H     1 shells
 l=0 nsto= 1
    1       1.200000000000        1.000000000000
  6 C     2 shells
 l=0 nsto= 1
    2       1.625000000000        1.000000000000
 l=1 nsto= 1
    2       1.625000000000        1.000000000000
  7 C     2 shells
 l=0 nsto= 1
    2       1.625000000000        1.000000000000
 l=1 nsto= 1
    2       1.625000000000        1.000000000000
  8 C     2 shells
 l=0 nsto= 1
    2       1.625000000000        1.000000000000
 l=1 nsto= 1
    2       1.625000000000        1.000000000000
  9 H     1 shells
 l=0 nsto= 1
    1       1.200000000000        1.000000000000
 10 H     1 shells
 l=0 nsto= 1
    1       1.200000000000        1.000000000000
 11 H     1 shells
 l=0 nsto= 1
    1       1.200000000000        1.000000000000
 12 H     1 shells
 l=0 nsto= 1
    1       1.200000000000        1.000000000000
 13 H     1 shells
 l=0 nsto= 1
    1       1.200000000000        1.000000000000
 14 H     1 shells
 l=0 nsto= 1
    1       1.200000000000        1.000000000000
 15 C     2 shells
 l=0 nsto= 1
    2       1.625000000000        1.000000000000
 l=1 nsto= 1
    2       1.625000000000        1.000000000000
 16 C     2 shells
 l=0 nsto= 1
    2       1.625000000000        1.000000000000
 l=1 nsto= 1
    2       1.625000000000        1.000000000000
 17 C     2 shells
 l=0 nsto= 1
    2       1.625000000000        1.000000000000
 l=1 nsto= 1
    2       1.625000000000        1.000000000000
 18 H     1 shells
 l=0 nsto= 1
    1       1.200000000000        1.000000000000
 19 H     1 shells
 l=0 nsto= 1
    1       1.200000000000        1.000000000000
 20 H     1 shells
 l=0 nsto= 1
    1       1.200000000000        1.000000000000
 21 H     1 shells
 l=0 nsto= 1
    1       1.200000000000        1.000000000000
 22 H     1 shells
 l=0 nsto= 1
    1       1.200000000000        1.000000000000
 23 H     1 shells
 l=0 nsto= 1
    1       1.200000000000        1.000000000000
 24 H     1 shells
 l=0 nsto= 1
    1       1.200000000000        1.000000000000
 25 H     1 shells
 l=0 nsto= 1
    1       1.200000000000        1.000000000000
 26 H     1 shells
 l=0 nsto= 1
    1       1.200000000000        1.000000000000
------------------------------------------------------------------------------
                           ORCA NDO INTEGRAL CALCULATION
------------------------------------------------------------------------------

--------------
NDO PARAMETERS
--------------

Gamma integral treatment              ... Mataga-Nishimoto
Nuclear repulsuion treatment          ... Direct (ZA*ZB/RAB)
Interaction factors:
s-s (sigma) =    1.0000
s-p (sigma) =    1.0000
s-d (sigma) =    1.0000
p-p (sigma) =    1.2670  p-p(pi) =    0.5850
p-d (sigma) =    1.0000  p-d(pi) =    1.0000
d-d (sigma) =    1.0000  d-d(pi) =    1.0000 d-d (delta) =    1.0000

fGamma parameter for Mataga-Nishimoto gamma integrals:    1.2000

--------------------------
Parameters for Element H :
--------------------------
 One-electron parameters (in eV)
  U(s)  =   -13.060000 Beta(s) =    12.000000 Neff(s) =     1.000000
 One-center electron repulsion parameters (in eV)
  G(s,s)=    12.850000
--------------------------
Parameters for Element C :
--------------------------
 One-electron parameters (in eV)
  U(s)  =   -50.870766 Beta(s) =    17.000000 Neff(s) =     2.000000
  U(p)  =   -41.599980 Beta(p) =    17.000000 Neff(p) =     2.000000 
 One-center electron repulsion parameters (in eV)
  G(s,s)=    11.110000
  G(s,p)=    11.110000 G(p,p)  =    11.110000
 Slater-Condon parameters (in eV)
 F2(p,p)=     4.5098 G1(s,p)=    6.8977
--------------------------
Parameters for Element S :
--------------------------
 One-electron parameters (in eV)
  U(s)  =   -69.509597 Beta(s) =    15.000000 Neff(s) =     2.000000
  U(p)  =   -60.725746 Beta(p) =    15.000000 Neff(p) =     4.000000 
 One-center electron repulsion parameters (in eV)
  G(s,s)=    10.090000
  G(s,p)=    10.090000 G(p,p)  =    10.090000
 Slater-Condon parameters (in eV)
 F2(p,p)=     4.5377 G1(s,p)=    3.0756

 Number of atoms                    ....   27
 Number of basis functions          ....   60

 Overlap integrals                  .... done
 One electron matrix                .... done
 Nuclear repulsion                  .... done
 Integral list                      .... done
 Electron-electron repulsion        .... done
-------------------------------------------------------------------------------
                                 ORCA SCF
-------------------------------------------------------------------------------

------------
SCF SETTINGS
------------
Hamiltonian:
 ZDO-Hamiltonian        Method          .... INDO


General Settings:
 Integral files         IntName         .... /Users/mattyjones/GoogleDrive/Boise/Code/MorphCT/tests/output_EZ/donor_polymer/chromophores/input_orca/single/00018
 Hartree-Fock type      HFTyp           .... RHF
 Total Charge           Charge          ....    0
 Multiplicity           Mult            ....    1
 Number of Electrons    NEL             ....   62
 Basis Dimension        Dim             ....   60
 Nuclear Repulsion      ENuc            ....    303.9709601653 Eh

Convergence Acceleration:
 DIIS                   CNVDIIS         .... on
   Start iteration      DIISMaxIt       ....    12
   Startup error        DIISStart       ....  0.200000
   # of expansion vecs  DIISMaxEq       ....     5
   Bias factor          DIISBfac        ....   1.050
   Max. coefficient     DIISMaxC        ....  10.000
 Newton-Raphson         CNVNR           .... off
 SOSCF                  CNVSOSCF        .... on
   Start iteration      SOSCFMaxIt      ....   150
   Startup grad/error   SOSCFStart      ....  0.003300
 Level Shifting         CNVShift        .... on
   Level shift para.    LevelShift      ....    0.2500
   Turn off err/grad.   ShiftErr        ....    0.0010
 Zerner damping         CNVZerner       .... off
 Static damping         CNVDamp         .... on
   Fraction old density DampFac         ....    0.7000
   Max. Damping (<1)    DampMax         ....    0.9800
   Min. Damping (>=0)   DampMin         ....    0.0000
   Turn off err/grad.   DampErr         ....    0.1000
 Fernandez-Rico         CNVRico         .... off

SCF Procedure:
 Maximum # iterations   MaxIter         ....   125
 SCF integral mode      SCFMode         .... Conventional
 Integral Buffer length BufferLength    .... 1048576
 Integral index format  IndFormat       ....     0
 Integral value format  ValFormat       ....     0
 Integral Storage       Thresh          ....  1.000e-08 Eh

Convergence Tolerance:
 Convergence Check Mode ConvCheckMode   .... Total+1el-Energy
 Energy Change          TolE            ....  1.000e-06 Eh
 1-El. energy change                    ....  1.000e-03 Eh
 Orbital Gradient       TolG            ....  5.000e-05
 Orbital Rotation angle TolX            ....  5.000e-05
 DIIS Error             TolErr          ....  1.000e-06


Diagonalization of the overlap matrix:
Smallest eigenvalue                        ... 1.693e-01
Time for diagonalization                   ...    0.001 sec
Threshold for overlap eigenvalues          ... 1.000e-08
Number of eigenvalues below threshold      ... 0
Time for construction of square roots      ...    0.000 sec
Total time needed                          ...    0.002 sec

-------------------------------
INITIAL GUESS: EXTENDED HUECKEL
-------------------------------
EHT matrix was read from disk
EHT matrix was diagonalized
Initial density was built
                      ------------------
                      INITIAL GUESS DONE
                      ------------------

 InCore treatment chosen:
   Memory dedicated               ...    1024 MB
   Memory needed                  ...      0 MB
   Number of tiny    integrals    ...       0
   Number of small   integrals    ...       0
   Number of regular integrals    ...    1896

--------------
SCF ITERATIONS
--------------
ITER       Energy         Delta-E        Max-DP      RMS-DP      [F,P]     Damp
  0     -3.9607708781   0.000000000000 0.04101182  0.00204742  0.0938626 0.7000
  1     -3.9818561052  -0.021085227106 0.03797740  0.00192898  0.0673288 0.7000
                               ***Turning on DIIS***
  2     -3.9974571523  -0.015601047156 0.09416612  0.00495026  0.0442987 0.0000
  3     -4.0379947319  -0.040537579595 0.01430174  0.00101407  0.0183133 0.0000
  4     -4.0309966347   0.006998097209 0.00956165  0.00070540  0.0065633 0.0000
  5     -4.0395958157  -0.008599181007 0.00662914  0.00047823  0.0037374 0.0000
  6     -4.0407146426  -0.001118826940 0.00456225  0.00034157  0.0019659 0.0000
                      *** Initiating the SOSCF procedure ***
                           *** Shutting down DIIS ***
                      *** Re-Reading the Fockian *** 
                      *** Removing any level shift *** 
ITER      Energy       Delta-E        Grad      Rot      Max-DP    RMS-DP
  7     -4.03867786   0.0020367829  0.003062  0.003062  0.004681  0.000327
  8     -4.03752358   0.0011542831  0.000307  0.000827  0.000515  0.000035
                 **** Energy Check signals convergence ****
              ***Rediagonalizing the Fockian in SOSCF/NRSCF***

               *****************************************************
               *                     SUCCESS                       *
               *           SCF CONVERGED AFTER   9 CYCLES          *
               *****************************************************


----------------
TOTAL SCF ENERGY
----------------

Total Energy       :           -4.03752455 Eh            -109.86663 eV

Components:
Nuclear Repulsion  :          303.97096017 Eh            8271.47034 eV
Electronic Energy  :         -308.00848472 Eh           -8381.33697 eV

One Electron Energy:         -570.77191637 Eh          -15531.49345 eV
Two Electron Energy:          262.76343165 Eh            7150.15648 eV


---------------
SCF CONVERGENCE
---------------

  Last Energy change         ...   -9.7374e-07  Tolerance :   1.0000e-06
  Last MAX-Density change    ...    5.5087e-04  Tolerance :   1.0000e-05
  Last RMS-Density change    ...    3.1472e-05  Tolerance :   1.0000e-06
  Last Orbital Gradient      ...    1.4606e-04  Tolerance :   5.0000e-05
  Last Orbital Rotation      ...    6.6941e-04  Tolerance :   5.0000e-05

             **** THE GBW FILE WAS UPDATED (/Users/mattyjones/GoogleDrive/Boise/Code/MorphCT/tests/output_EZ/donor_polymer/chromophores/input_orca/single/00018.gbw) ****
             **** DENSITY FILE WAS UPDATED (/Users/mattyjones/GoogleDrive/Boise/Code/MorphCT/tests/output_EZ/donor_polymer/chromophores/input_orca/single/00018.scfp.tmp) ****
             **** ENERGY FILE WAS UPDATED (/Users/mattyjones/GoogleDrive/Boise/Code/MorphCT/tests/output_EZ/donor_polymer/chromophores/input_orca/single/00018.en.tmp) ****
----------------
ORBITAL ENERGIES
----------------

  NO   OCC          E(Eh)            E(eV) 
   0   2.0000      -1.564390       -42.5692 
   1   2.0000      -1.414427       -38.4885 
   2   2.0000      -1.282287       -34.8928 
   3   2.0000      -1.192736       -32.4560 
   4   2.0000      -1.119005       -30.4497 
   5   2.0000      -1.036803       -28.2128 
   6   2.0000      -0.944895       -25.7119 
   7   2.0000      -0.907406       -24.6918 
   8   2.0000      -0.861201       -23.4345 
   9   2.0000      -0.833008       -22.6673 
  10   2.0000      -0.778145       -21.1744 
  11   2.0000      -0.743098       -20.2207 
  12   2.0000      -0.683124       -18.5887 
  13   2.0000      -0.667001       -18.1500 
  14   2.0000      -0.646799       -17.6003 
  15   2.0000      -0.619937       -16.8693 
  16   2.0000      -0.604408       -16.4468 
  17   2.0000      -0.576284       -15.6815 
  18   2.0000      -0.562538       -15.3074 
  19   2.0000      -0.550811       -14.9883 
  20   2.0000      -0.534175       -14.5357 
  21   2.0000      -0.516875       -14.0649 
  22   2.0000      -0.505737       -13.7618 
  23   2.0000      -0.494719       -13.4620 
  24   2.0000      -0.481155       -13.0929 
  25   2.0000      -0.477276       -12.9873 
  26   2.0000      -0.473525       -12.8853 
  27   2.0000      -0.459557       -12.5052 
  28   2.0000      -0.436028       -11.8649 
  29   2.0000      -0.350229        -9.5302 
  30   2.0000      -0.304774        -8.2933 
  31   0.0000       0.007411         0.2017 
  32   0.0000       0.067053         1.8246 
  33   0.0000       0.078059         2.1241 
  34   0.0000       0.089115         2.4249 
  35   0.0000       0.107597         2.9279 
  36   0.0000       0.107826         2.9341 
  37   0.0000       0.126637         3.4460 
  38   0.0000       0.141155         3.8410 
  39   0.0000       0.158729         4.3192 
  40   0.0000       0.165408         4.5010 
  41   0.0000       0.173632         4.7248 
  42   0.0000       0.202056         5.4982 
  43   0.0000       0.231139         6.2896 
  44   0.0000       0.236218         6.4278 
  45   0.0000       0.237413         6.4603 
  46   0.0000       0.240589         6.5468 
  47   0.0000       0.241127         6.5614 
  48   0.0000       0.245216         6.6727 
  49   0.0000       0.246197         6.6994 
  50   0.0000       0.252368         6.8673 
  51   0.0000       0.262448         7.1416 
  52   0.0000       0.267346         7.2748 
  53   0.0000       0.285011         7.7555 
  54   0.0000       0.310137         8.4393 
  55   0.0000       0.310978         8.4621 
  56   0.0000       0.336655         9.1609 
  57   0.0000       0.347351         9.4519 
  58   0.0000       0.421531        11.4704 
  59   0.0000       0.425531        11.5793 
-------
TIMINGS
-------

Total SCF time: 0 days 0 hours 0 min 0 sec 

Total time                  ....       0.078 sec
Sum of individual times     ....       0.063 sec  ( 79.9%)

Fock matrix formation       ....       0.044 sec  ( 56.5%)
Diagonalization             ....       0.006 sec  (  7.3%)
Density matrix formation    ....       0.001 sec  (  0.8%)
Population analysis         ....       0.000 sec  (  0.0%)
Initial guess               ....       0.001 sec  (  0.8%)
Orbital Transformation      ....       0.000 sec  (  0.0%)
Orbital Orthonormalization  ....       0.000 sec  (  0.0%)
DIIS solution               ....       0.009 sec  ( 11.7%)
SOSCF solution              ....       0.002 sec  (  2.9%)

-------------------------   --------------------
FINAL SINGLE POINT ENERGY        -4.037524550352
-------------------------   --------------------


                            ***************************************
                            *     ORCA property calculations      *
                            ***************************************

                                    ---------------------
                                    Active property flags
                                    ---------------------
   (+) Dipole Moment


------------------------------------------------------------------------------
                       ORCA ELECTRIC PROPERTIES CALCULATION
------------------------------------------------------------------------------

Dipole Moment Calculation                       ... on
Quadrupole Moment Calculation                   ... off
Polarizability Calculation                      ... off
GBWName                                         ... /Users/mattyjones/GoogleDrive/Boise/Code/MorphCT/tests/output_EZ/donor_polymer/chromophores/input_orca/single/00018.gbw
Electron density file                           ... /Users/mattyjones/GoogleDrive/Boise/Code/MorphCT/tests/output_EZ/donor_polymer/chromophores/input_orca/single/00018.scfp.tmp

-------------
DIPOLE MOMENT
-------------
                                X             Y             Z
Electronic contribution:    -65.97615     -34.92185    -103.98601
Nuclear contribution   :     35.09465      18.92945      55.75424
                        -----------------------------------------
Total Dipole Moment    :    -30.88150     -15.99241     -48.23176
                        -----------------------------------------
Magnitude (a.u.)       :     59.46198
Magnitude (Debye)      :    151.14034


Timings for individual modules:

Sum of individual times         ...        0.179 sec (=   0.003 min)
STO integral calculation        ...        0.041 sec (=   0.001 min)  22.9 %
SCF iterations                  ...        0.138 sec (=   0.002 min)  77.1 %
                             ****ORCA TERMINATED NORMALLY****
TOTAL RUN TIME: 0 days 0 hours 0 minutes 0 seconds 483 msec

