
                                 *****************
                                 * O   R   C   A *
                                 *****************

           --- An Ab Initio, DFT and Semiempirical electronic structure package ---

                  #######################################################
                  #                        -***-                        #
                  #  Department of molecular theory and spectroscopy    #
                  #              Directorship: Frank Neese              #
                  # Max Planck Institute for Chemical Energy Conversion #
                  #                  D-45470 Muelheim/Ruhr              #
                  #                       Germany                       #
                  #                                                     #
                  #                  All rights reserved                #
                  #                        -***-                        #
                  #######################################################


                         Program Version 3.0.3 - RELEASE   -


 With contributions from (in alphabetic order):
   Ute Becker             : Parallelization
   Dmytro Bykov           : SCF Hessian
   Dmitry Ganyushin       : Spin-Orbit,Spin-Spin,Magnetic field MRCI
   Andreas Hansen         : Spin unrestricted coupled pair/coupled cluster methods
   Dimitrios Liakos       : Extrapolation schemes; parallel MDCI
   Robert Izsak           : Overlap fitted RIJCOSX, COSX-SCS-MP3
   Christian Kollmar      : KDIIS, OOCD, Brueckner-CCSD(T), CCSD density
   Simone Kossmann        : Meta GGA functionals, TD-DFT gradient, OOMP2, MP2 Hessian
   Taras Petrenko         : DFT Hessian,TD-DFT gradient, ASA and ECA modules, normal mode analysis, Resonance Raman, ABS, FL, XAS/XES, NRVS
   Christoph Reimann      : Effective Core Potentials
   Michael Roemelt        : Restricted open shell CIS
   Christoph Riplinger    : Improved optimizer, TS searches, QM/MM, DLPNO-CCSD
   Barbara Sandhoefer     : DKH picture change effects
   Igor Schapiro          : Molecular dynamics
   Kantharuban Sivalingam : CASSCF convergence, NEVPT2
   Boris Wezisla          : Elementary symmetry handling
   Frank Wennmohs         : Technical directorship


 We gratefully acknowledge several colleagues who have allowed us to
 interface, adapt or use parts of their codes:
   Stefan Grimme, W. Hujo, H. Kruse, T. Risthaus : VdW corrections, initial TS optimization,
                                                   DFT functionals, gCP
   Ed Valeev                                     : LibInt (2-el integral package), F12 methods
   Garnet Chan, S. Sharma, R. Olivares           : DMRG
   Ulf Ekstrom                                   : XCFun DFT Library
   Mihaly Kallay                                 : mrcc  (arbitrary order and MRCC methods)
   Andreas Klamt, Michael Diedenhofen            : otool_cosmo (COSMO solvation model)
   Frank Weinhold                                : gennbo (NPA and NBO analysis)
   Christopher J. Cramer and Donald G. Truhlar   : smd solvation model


 Your calculation uses the libint2 library for the computation of 2-el integrals
 For citations please refer to: http://libint.valeyev.net

 This ORCA versions uses:
   CBLAS   interface :  Fast vector & matrix operations
   LAPACKE interface :  Fast linear algebra routines
   SCALAPACK package :  Parallel linear algebra routines


leaving
================================================================================
                                        WARNINGS
                       Please study these warnings very carefully!
================================================================================
Now building the actual basis set

WARNING: Direct SCF is incompatible with Method<>HF and Method<>DFT
  ===> : conventional SCF is chosen

WARNING: The NDO methods need Guess=HUECKEL or Guess=HCORE or Guess=MOREAD
  ===> : Guess is set to Hueckel

WARNING: The NDO methods need %rel::SOCType==1
  ===> : %rel::SOCType is set to 1

WARNING: The NDO methods cannot have frozencore=1
  ===> : %method FrozenCore=0 end


INFO   : the flag for use of LIBINT has been found!

================================================================================
                                       INPUT FILE
================================================================================
NAME = /Users/mattyjones/GoogleDrive/Boise/Code/MorphCT/tests/output_EZ/donor_polymer/chromophores/input_orca/single/00018.inp
|  1> # ================================================================
|  2> # Orca input file made by Matty Jones
|  3> # ================================================================
|  4> ! ZINDO/S 
|  5> ! NOPOP
|  6> ! NOMOPRINT
|  7> * xyz 0   1
|  8>  C  -1.18807  -2.27400  -3.76450
|  9>  C  -0.59638  -1.90677  -2.55498
| 10>  C  -1.37610  -0.99561  -1.77647
| 11>  C  -2.58961  -0.64158  -2.37428
| 12>  S  -2.63335  -1.46298  -3.81435
| 13>  H  0.19965  -2.52239  -2.03764
| 14>  C  -0.69125  -0.56171  -0.38868
| 15>  C  0.91604  -0.09262  -0.71212
| 16>  C  1.97083  0.22109  0.55379
| 17>  H  3.03554  0.25337  0.08749
| 18>  H  1.92545  -0.70049  1.25632
| 19>  H  1.42987  -0.90543  -1.34652
| 20>  H  0.83695  0.87493  -1.34155
| 21>  H  -1.24930  0.34071  0.07811
| 22>  H  -0.68662  -1.44062  0.36409
| 23>  C  1.75208  1.57973  1.40554
| 24>  C  0.90864  1.25914  2.83698
| 25>  C  -0.76344  1.30337  2.69636
| 26>  H  -1.06897  2.09266  1.90745
| 27>  H  -1.21960  1.58394  3.72295
| 28>  H  -1.15037  0.26068  2.37741
| 29>  H  1.21008  0.21233  3.21582
| 30>  H  1.22670  2.04934  3.61411
| 31>  H  1.15044  2.35104  0.79134
| 32>  H  2.77404  2.03996  1.68807
| 33>  H  -0.79611  -2.93254  -4.49683
| 34>  H  -3.32714  0.01445  -1.98791
| 35> *
| 36> 
| 37>                          ****END OF INPUT****
================================================================================

                       ****************************
                       * Single Point Calculation *
                       ****************************

---------------------------------
CARTESIAN COORDINATES (ANGSTROEM)
---------------------------------
  C     -1.188070   -2.274000   -3.764500
  C     -0.596380   -1.906770   -2.554980
  C     -1.376100   -0.995610   -1.776470
  C     -2.589610   -0.641580   -2.374280
  S     -2.633350   -1.462980   -3.814350
  H      0.199650   -2.522390   -2.037640
  C     -0.691250   -0.561710   -0.388680
  C      0.916040   -0.092620   -0.712120
  C      1.970830    0.221090    0.553790
  H      3.035540    0.253370    0.087490
  H      1.925450   -0.700490    1.256320
  H      1.429870   -0.905430   -1.346520
  H      0.836950    0.874930   -1.341550
  H     -1.249300    0.340710    0.078110
  H     -0.686620   -1.440620    0.364090
  C      1.752080    1.579730    1.405540
  C      0.908640    1.259140    2.836980
  C     -0.763440    1.303370    2.696360
  H     -1.068970    2.092660    1.907450
  H     -1.219600    1.583940    3.722950
  H     -1.150370    0.260680    2.377410
  H      1.210080    0.212330    3.215820
  H      1.226700    2.049340    3.614110
  H      1.150440    2.351040    0.791340
  H      2.774040    2.039960    1.688070
  H     -0.796110   -2.932540   -4.496830
  H     -3.327140    0.014450   -1.987910

----------------------------
CARTESIAN COORDINATES (A.U.)
----------------------------
  NO LB      ZA    FRAG    MASS        X           Y           Z
   0 C     4.0000    0    12.011         -2.245126927927821         -4.297237228536926         -7.113874031146552
   1 C     4.0000    0    12.011         -1.126994871747956         -3.603273100377025         -4.828212477646120
   2 C     4.0000    0    12.011         -2.600452132889035         -1.881430236193337         -3.357041785127086
   3 C     4.0000    0    12.011         -4.893653693663812         -1.212410493001197         -4.486738965246550
   4 S     6.0000    0    32.060         -4.976310314761529         -2.764631539404113         -7.208076878922527
   5 H     1.0000    0     1.008          0.377283822637378         -4.766626302941626         -3.850581559523299
   6 C     4.0000    0    12.011         -1.306273190073065         -1.061478066684906         -0.734498753732512
   7 C     4.0000    0    12.011          1.731064727717223         -0.175026434523786         -1.345711774488002
   8 C     4.0000    0    12.011          3.724328956516020          0.417799550948650          1.046511435704250
   9 H     1.0000    0     1.008          5.736339268563317          0.478799910551628          0.165332139456770
  10 H     1.0000    0     1.008          3.638573184558674         -1.323734259550498          2.374100736567947
  11 H     1.0000    0     1.008          2.702062707109980         -1.711014733436319         -2.544554033847644
  12 H     1.0000    0     1.008          1.581606287785392          1.653378086351721         -2.535162094962055
  13 H     1.0000    0     1.008         -2.360834859107820          0.643848591088310          0.147606508320589
  14 H     1.0000    0     1.008         -1.297523758073010         -2.722377263049633          0.688030388099389
  15 C     4.0000    0    12.011          3.310951364720747          2.985257065539419          2.656085670271676
  16 C     4.0000    0    12.011          1.717080754326206          2.379429764265605          5.361115247411913
  17 C     4.0000    0    12.011         -1.442692519680840          2.463012351168941          5.095381958459906
  18 H     1.0000    0     1.008         -2.020060545377800          3.954554291411646          3.604558114148092
  19 H     1.0000    0     1.008         -2.304709992930359          2.993212812563227          7.035355910282123
  20 H     1.0000    0     1.008         -2.173884252678990          0.492613808590592          4.492653808045723
  21 H     1.0000    0     1.008          2.286719800135428          0.401245550015499          6.077019095986639
  22 H     1.0000    0     1.008          2.318127048481199          3.872691355290178          6.829678117866135
  23 H     1.0000    0     1.008          2.174016533508365          4.442821729894219          1.495415878817243
  24 H     1.0000    0     1.008          5.242175884542909          3.854965724153997          3.189989994888447
  25 H     1.0000    0     1.008         -1.504429872476048         -5.541697476769428         -8.497777170801102
  26 H     1.0000    0     1.008         -6.287383409214753          0.027306542635162         -3.756605478883396

--------------------------------
INTERNAL COORDINATES (ANGSTROEM)
--------------------------------
 C      0   0   0   0.000000     0.000     0.000
 C      1   0   0   1.395670     0.000     0.000
 C      2   1   0   1.429774   114.102     0.000
 C      3   2   1   1.398328   113.693     0.000
 S      1   2   3   1.658033   105.480     0.000
 H      2   1   3   1.131500   123.458   158.095
 C      3   2   1   1.607249   114.194   180.482
 C      7   3   2   1.705298   108.186    48.882
 C      8   7   3   1.677356   120.066   188.238
 H      9   8   7   1.162792   106.161   166.206
 H      9   8   7   1.159706   106.497    51.847
 H      8   7   3   1.152018   109.315   310.237
 H      8   7   3   1.156975   105.593    67.037
 H      7   3   2   1.159170   110.655   167.521
 H      7   3   2   1.157224   110.998   289.114
 C      9   8   7   1.618404   117.983   287.621
 C     16   9   8   1.692096   110.704    98.611
 C     17  16   9   1.678565   114.877   272.435
 H     18  17  16   1.157025   109.764   327.079
 H     18  17  16   1.157881   108.938   207.089
 H     18  17  16   1.156999   109.419    87.613
 H     17  16   9   1.153342   108.636    33.705
 H     17  16   9   1.153043   107.627   151.801
 H     16   9   8   1.155046   110.557   338.389
 H     16   9   8   1.155871   110.084   217.973
 H      1   2   3   1.060007   127.260   180.000
 H      4   3   2   1.060004   127.206   180.000

---------------------------
INTERNAL COORDINATES (A.U.)
---------------------------
 C      0   0   0   0.000000     0.000     0.000
 C      1   0   0   2.637433     0.000     0.000
 C      2   1   0   2.701881   114.102     0.000
 C      3   2   1   2.642457   113.693     0.000
 S      1   2   3   3.133228   105.480     0.000
 H      2   1   3   2.138225   123.458   158.095
 C      3   2   1   3.037261   114.194   180.482
 C      7   3   2   3.222545   108.186    48.882
 C      8   7   3   3.169744   120.066   188.238
 H      9   8   7   2.197358   106.161   166.206
 H      9   8   7   2.191526   106.497    51.847
 H      8   7   3   2.176998   109.315   310.237
 H      8   7   3   2.186365   105.593    67.037
 H      7   3   2   2.190513   110.655   167.521
 H      7   3   2   2.186836   110.998   289.114
 C      9   8   7   3.058341   117.983   287.621
 C     16   9   8   3.197598   110.704    98.611
 C     17  16   9   3.172029   114.877   272.435
 H     18  17  16   2.186460   109.764   327.079
 H     18  17  16   2.188078   108.938   207.089
 H     18  17  16   2.186411   109.419    87.613
 H     17  16   9   2.179500   108.636    33.705
 H     17  16   9   2.178936   107.627   151.801
 H     16   9   8   2.182721   110.557   338.389
 H     16   9   8   2.184279   110.084   217.973
 H      1   2   3   2.003123   127.260   180.000
 H      4   3   2   2.003117   127.206   180.000

----------------------------
SLATER BASIS SET DIM=  60
----------------------------
  0 C     2 shells
 l=0 nsto= 1
    2       1.625000000000        1.000000000000
 l=1 nsto= 1
    2       1.625000000000        1.000000000000
  1 C     2 shells
 l=0 nsto= 1
    2       1.625000000000        1.000000000000
 l=1 nsto= 1
    2       1.625000000000        1.000000000000
  2 C     2 shells
 l=0 nsto= 1
    2       1.625000000000        1.000000000000
 l=1 nsto= 1
    2       1.625000000000        1.000000000000
  3 C     2 shells
 l=0 nsto= 1
    2       1.625000000000        1.000000000000
 l=1 nsto= 1
    2       1.625000000000        1.000000000000
  4 S     2 shells
 l=0 nsto= 1
    3       1.925000000000        1.000000000000
 l=1 nsto= 1
    3       1.925000000000        1.000000000000
  5 H     1 shells
 l=0 nsto= 1
    1       1.200000000000        1.000000000000
  6 C     2 shells
 l=0 nsto= 1
    2       1.625000000000        1.000000000000
 l=1 nsto= 1
    2       1.625000000000        1.000000000000
  7 C     2 shells
 l=0 nsto= 1
    2       1.625000000000        1.000000000000
 l=1 nsto= 1
    2       1.625000000000        1.000000000000
  8 C     2 shells
 l=0 nsto= 1
    2       1.625000000000        1.000000000000
 l=1 nsto= 1
    2       1.625000000000        1.000000000000
  9 H     1 shells
 l=0 nsto= 1
    1       1.200000000000        1.000000000000
 10 H     1 shells
 l=0 nsto= 1
    1       1.200000000000        1.000000000000
 11 H     1 shells
 l=0 nsto= 1
    1       1.200000000000        1.000000000000
 12 H     1 shells
 l=0 nsto= 1
    1       1.200000000000        1.000000000000
 13 H     1 shells
 l=0 nsto= 1
    1       1.200000000000        1.000000000000
 14 H     1 shells
 l=0 nsto= 1
    1       1.200000000000        1.000000000000
 15 C     2 shells
 l=0 nsto= 1
    2       1.625000000000        1.000000000000
 l=1 nsto= 1
    2       1.625000000000        1.000000000000
 16 C     2 shells
 l=0 nsto= 1
    2       1.625000000000        1.000000000000
 l=1 nsto= 1
    2       1.625000000000        1.000000000000
 17 C     2 shells
 l=0 nsto= 1
    2       1.625000000000        1.000000000000
 l=1 nsto= 1
    2       1.625000000000        1.000000000000
 18 H     1 shells
 l=0 nsto= 1
    1       1.200000000000        1.000000000000
 19 H     1 shells
 l=0 nsto= 1
    1       1.200000000000        1.000000000000
 20 H     1 shells
 l=0 nsto= 1
    1       1.200000000000        1.000000000000
 21 H     1 shells
 l=0 nsto= 1
    1       1.200000000000        1.000000000000
 22 H     1 shells
 l=0 nsto= 1
    1       1.200000000000        1.000000000000
 23 H     1 shells
 l=0 nsto= 1
    1       1.200000000000        1.000000000000
 24 H     1 shells
 l=0 nsto= 1
    1       1.200000000000        1.000000000000
 25 H     1 shells
 l=0 nsto= 1
    1       1.200000000000        1.000000000000
 26 H     1 shells
 l=0 nsto= 1
    1       1.200000000000        1.000000000000
------------------------------------------------------------------------------
                           ORCA NDO INTEGRAL CALCULATION
------------------------------------------------------------------------------

--------------
NDO PARAMETERS
--------------

Gamma integral treatment              ... Mataga-Nishimoto
Nuclear repulsuion treatment          ... Direct (ZA*ZB/RAB)
Interaction factors:
s-s (sigma) =    1.0000
s-p (sigma) =    1.0000
s-d (sigma) =    1.0000
p-p (sigma) =    1.2670  p-p(pi) =    0.5850
p-d (sigma) =    1.0000  p-d(pi) =    1.0000
d-d (sigma) =    1.0000  d-d(pi) =    1.0000 d-d (delta) =    1.0000

fGamma parameter for Mataga-Nishimoto gamma integrals:    1.2000

--------------------------
Parameters for Element H :
--------------------------
 One-electron parameters (in eV)
  U(s)  =   -13.060000 Beta(s) =    12.000000 Neff(s) =     1.000000
 One-center electron repulsion parameters (in eV)
  G(s,s)=    12.850000
--------------------------
Parameters for Element C :
--------------------------
 One-electron parameters (in eV)
  U(s)  =   -50.870766 Beta(s) =    17.000000 Neff(s) =     2.000000
  U(p)  =   -41.599980 Beta(p) =    17.000000 Neff(p) =     2.000000 
 One-center electron repulsion parameters (in eV)
  G(s,s)=    11.110000
  G(s,p)=    11.110000 G(p,p)  =    11.110000
 Slater-Condon parameters (in eV)
 F2(p,p)=     4.5098 G1(s,p)=    6.8977
--------------------------
Parameters for Element S :
--------------------------
 One-electron parameters (in eV)
  U(s)  =   -69.509597 Beta(s) =    15.000000 Neff(s) =     2.000000
  U(p)  =   -60.725746 Beta(p) =    15.000000 Neff(p) =     4.000000 
 One-center electron repulsion parameters (in eV)
  G(s,s)=    10.090000
  G(s,p)=    10.090000 G(p,p)  =    10.090000
 Slater-Condon parameters (in eV)
 F2(p,p)=     4.5377 G1(s,p)=    3.0756

 Number of atoms                    ....   27
 Number of basis functions          ....   60

 Overlap integrals                  .... done
 One electron matrix                .... done
 Nuclear repulsion                  .... done
 Integral list                      .... done
 Electron-electron repulsion        .... done
-------------------------------------------------------------------------------
                                 ORCA SCF
-------------------------------------------------------------------------------

------------
SCF SETTINGS
------------
Hamiltonian:
 ZDO-Hamiltonian        Method          .... INDO


General Settings:
 Integral files         IntName         .... /Users/mattyjones/GoogleDrive/Boise/Code/MorphCT/tests/output_EZ/donor_polymer/chromophores/input_orca/single/00018
 Hartree-Fock type      HFTyp           .... RHF
 Total Charge           Charge          ....    0
 Multiplicity           Mult            ....    1
 Number of Electrons    NEL             ....   62
 Basis Dimension        Dim             ....   60
 Nuclear Repulsion      ENuc            ....    303.8416365878 Eh

Convergence Acceleration:
 DIIS                   CNVDIIS         .... on
   Start iteration      DIISMaxIt       ....    12
   Startup error        DIISStart       ....  0.200000
   # of expansion vecs  DIISMaxEq       ....     5
   Bias factor          DIISBfac        ....   1.050
   Max. coefficient     DIISMaxC        ....  10.000
 Newton-Raphson         CNVNR           .... off
 SOSCF                  CNVSOSCF        .... on
   Start iteration      SOSCFMaxIt      ....   150
   Startup grad/error   SOSCFStart      ....  0.003300
 Level Shifting         CNVShift        .... on
   Level shift para.    LevelShift      ....    0.2500
   Turn off err/grad.   ShiftErr        ....    0.0010
 Zerner damping         CNVZerner       .... off
 Static damping         CNVDamp         .... on
   Fraction old density DampFac         ....    0.7000
   Max. Damping (<1)    DampMax         ....    0.9800
   Min. Damping (>=0)   DampMin         ....    0.0000
   Turn off err/grad.   DampErr         ....    0.1000
 Fernandez-Rico         CNVRico         .... off

SCF Procedure:
 Maximum # iterations   MaxIter         ....   125
 SCF integral mode      SCFMode         .... Conventional
 Integral Buffer length BufferLength    .... 1048576
 Integral index format  IndFormat       ....     0
 Integral value format  ValFormat       ....     0
 Integral Storage       Thresh          ....  1.000e-08 Eh

Convergence Tolerance:
 Convergence Check Mode ConvCheckMode   .... Total+1el-Energy
 Energy Change          TolE            ....  1.000e-06 Eh
 1-El. energy change                    ....  1.000e-03 Eh
 Orbital Gradient       TolG            ....  5.000e-05
 Orbital Rotation angle TolX            ....  5.000e-05
 DIIS Error             TolErr          ....  1.000e-06


Diagonalization of the overlap matrix:
Smallest eigenvalue                        ... 1.693e-01
Time for diagonalization                   ...    0.001 sec
Threshold for overlap eigenvalues          ... 1.000e-08
Number of eigenvalues below threshold      ... 0
Time for construction of square roots      ...    0.000 sec
Total time needed                          ...    0.002 sec

-------------------------------
INITIAL GUESS: EXTENDED HUECKEL
-------------------------------
EHT matrix was read from disk
EHT matrix was diagonalized
Initial density was built
                      ------------------
                      INITIAL GUESS DONE
                      ------------------

 InCore treatment chosen:
   Memory dedicated               ...    1024 MB
   Memory needed                  ...      0 MB
   Number of tiny    integrals    ...       0
   Number of small   integrals    ...       0
   Number of regular integrals    ...    1896

--------------
SCF ITERATIONS
--------------
ITER       Energy         Delta-E        Max-DP      RMS-DP      [F,P]     Damp
  0     -3.9804666920   0.000000000000 0.04168492  0.00204401  0.0860534 0.7000
  1     -4.0014568149  -0.020990122870 0.03904630  0.00192512  0.0616987 0.7000
                               ***Turning on DIIS***
  2     -4.0169860691  -0.015529254195 0.09821688  0.00493939  0.0405591 0.0000
  3     -4.0573909051  -0.040404836043 0.01353928  0.00101614  0.0193881 0.0000
  4     -4.0504262366   0.006964668522 0.01064384  0.00070486  0.0067939 0.0000
  5     -4.0588783072  -0.008452070589 0.00739445  0.00047736  0.0039215 0.0000
  6     -4.0600602737  -0.001181966490 0.00508652  0.00034093  0.0020986 0.0000
                      *** Initiating the SOSCF procedure ***
                           *** Shutting down DIIS ***
                      *** Re-Reading the Fockian *** 
                      *** Removing any level shift *** 
ITER      Energy       Delta-E        Grad      Rot      Max-DP    RMS-DP
  7     -4.05799371   0.0020665627  0.003048  0.003048  0.002816  0.000194
  8     -4.05685282   0.0011408892  0.000831  0.002320  0.001411  0.000092
  9     -4.05686072  -0.0000079014  0.000367  0.002296  0.001611  0.000098
 10     -4.05686367  -0.0000029518  0.000032  0.000080  0.000110  0.000006
                 **** Energy Check signals convergence ****
              ***Rediagonalizing the Fockian in SOSCF/NRSCF***

               *****************************************************
               *                     SUCCESS                       *
               *           SCF CONVERGED AFTER  11 CYCLES          *
               *****************************************************


----------------
TOTAL SCF ENERGY
----------------

Total Energy       :           -4.05686370 Eh            -110.39287 eV

Components:
Nuclear Repulsion  :          303.84163659 Eh            8267.95127 eV
Electronic Energy  :         -307.89850029 Eh           -8378.34414 eV

One Electron Energy:         -570.53238019 Eh          -15524.97534 eV
Two Electron Energy:          262.63387990 Eh            7146.63120 eV


---------------
SCF CONVERGENCE
---------------

  Last Energy change         ...   -2.9523e-08  Tolerance :   1.0000e-06
  Last MAX-Density change    ...    5.2949e-05  Tolerance :   1.0000e-05
  Last RMS-Density change    ...    2.2782e-06  Tolerance :   1.0000e-06
  Last Orbital Gradient      ...    1.0554e-05  Tolerance :   5.0000e-05
  Last Orbital Rotation      ...    2.8878e-05  Tolerance :   5.0000e-05

             **** THE GBW FILE WAS UPDATED (/Users/mattyjones/GoogleDrive/Boise/Code/MorphCT/tests/output_EZ/donor_polymer/chromophores/input_orca/single/00018.gbw) ****
             **** DENSITY FILE WAS UPDATED (/Users/mattyjones/GoogleDrive/Boise/Code/MorphCT/tests/output_EZ/donor_polymer/chromophores/input_orca/single/00018.scfp.tmp) ****
             **** ENERGY FILE WAS UPDATED (/Users/mattyjones/GoogleDrive/Boise/Code/MorphCT/tests/output_EZ/donor_polymer/chromophores/input_orca/single/00018.en.tmp) ****
----------------
ORBITAL ENERGIES
----------------

  NO   OCC          E(Eh)            E(eV) 
   0   2.0000      -1.565121       -42.5891 
   1   2.0000      -1.415107       -38.5070 
   2   2.0000      -1.284700       -34.9585 
   3   2.0000      -1.192444       -32.4480 
   4   2.0000      -1.120419       -30.4882 
   5   2.0000      -1.036522       -28.2052 
   6   2.0000      -0.945943       -25.7404 
   7   2.0000      -0.906722       -24.6732 
   8   2.0000      -0.862444       -23.4683 
   9   2.0000      -0.834483       -22.7074 
  10   2.0000      -0.777971       -21.1697 
  11   2.0000      -0.743478       -20.2311 
  12   2.0000      -0.685283       -18.6475 
  13   2.0000      -0.667498       -18.1636 
  14   2.0000      -0.645484       -17.5645 
  15   2.0000      -0.619064       -16.8456 
  16   2.0000      -0.604801       -16.4575 
  17   2.0000      -0.576145       -15.6777 
  18   2.0000      -0.562712       -15.3122 
  19   2.0000      -0.551409       -15.0046 
  20   2.0000      -0.534949       -14.5567 
  21   2.0000      -0.516413       -14.0523 
  22   2.0000      -0.505378       -13.7520 
  23   2.0000      -0.494845       -13.4654 
  24   2.0000      -0.481475       -13.1016 
  25   2.0000      -0.477819       -13.0021 
  26   2.0000      -0.473300       -12.8791 
  27   2.0000      -0.459228       -12.4962 
  28   2.0000      -0.435889       -11.8611 
  29   2.0000      -0.350610        -9.5406 
  30   2.0000      -0.304671        -8.2905 
  31   0.0000       0.007780         0.2117 
  32   0.0000       0.068144         1.8543 
  33   0.0000       0.078328         2.1314 
  34   0.0000       0.089468         2.4346 
  35   0.0000       0.107552         2.9266 
  36   0.0000       0.108050         2.9402 
  37   0.0000       0.126674         3.4470 
  38   0.0000       0.141321         3.8455 
  39   0.0000       0.158685         4.3180 
  40   0.0000       0.165396         4.5006 
  41   0.0000       0.174832         4.7574 
  42   0.0000       0.202921         5.5218 
  43   0.0000       0.231047         6.2871 
  44   0.0000       0.236069         6.4238 
  45   0.0000       0.237617         6.4659 
  46   0.0000       0.239552         6.5185 
  47   0.0000       0.240900         6.5552 
  48   0.0000       0.245149         6.6708 
  49   0.0000       0.246221         6.7000 
  50   0.0000       0.252669         6.8755 
  51   0.0000       0.262731         7.1493 
  52   0.0000       0.267566         7.2808 
  53   0.0000       0.286011         7.7828 
  54   0.0000       0.310329         8.4445 
  55   0.0000       0.311387         8.4733 
  56   0.0000       0.338322         9.2062 
  57   0.0000       0.348513         9.4835 
  58   0.0000       0.421560        11.4712 
  59   0.0000       0.425518        11.5789 
-------
TIMINGS
-------

Total SCF time: 0 days 0 hours 0 min 0 sec 

Total time                  ....       0.106 sec
Sum of individual times     ....       0.091 sec  ( 85.8%)

Fock matrix formation       ....       0.051 sec  ( 48.7%)
Diagonalization             ....       0.005 sec  (  4.6%)
Density matrix formation    ....       0.001 sec  (  0.8%)
Population analysis         ....       0.000 sec  (  0.0%)
Initial guess               ....       0.001 sec  (  0.5%)
Orbital Transformation      ....       0.000 sec  (  0.0%)
Orbital Orthonormalization  ....       0.000 sec  (  0.0%)
DIIS solution               ....       0.031 sec  ( 29.2%)
SOSCF solution              ....       0.002 sec  (  2.0%)

-------------------------   --------------------
FINAL SINGLE POINT ENERGY        -4.056863704511
-------------------------   --------------------


                            ***************************************
                            *     ORCA property calculations      *
                            ***************************************

                                    ---------------------
                                    Active property flags
                                    ---------------------
   (+) Dipole Moment


------------------------------------------------------------------------------
                       ORCA ELECTRIC PROPERTIES CALCULATION
------------------------------------------------------------------------------

Dipole Moment Calculation                       ... on
Quadrupole Moment Calculation                   ... off
Polarizability Calculation                      ... off
GBWName                                         ... /Users/mattyjones/GoogleDrive/Boise/Code/MorphCT/tests/output_EZ/donor_polymer/chromophores/input_orca/single/00018.gbw
Electron density file                           ... /Users/mattyjones/GoogleDrive/Boise/Code/MorphCT/tests/output_EZ/donor_polymer/chromophores/input_orca/single/00018.scfp.tmp

-------------
DIPOLE MOMENT
-------------
                                X             Y             Z
Electronic contribution:    -66.51582     -40.57182    -101.66377
Nuclear contribution   :     35.34346      22.00084      54.53436
                        -----------------------------------------
Total Dipole Moment    :    -31.17236     -18.57098     -47.12940
                        -----------------------------------------
Magnitude (a.u.)       :     59.47922
Magnitude (Debye)      :    151.18417


Timings for individual modules:

Sum of individual times         ...        0.177 sec (=   0.003 min)
STO integral calculation        ...        0.039 sec (=   0.001 min)  21.9 %
SCF iterations                  ...        0.138 sec (=   0.002 min)  78.1 %
                             ****ORCA TERMINATED NORMALLY****
TOTAL RUN TIME: 0 days 0 hours 0 minutes 0 seconds 488 msec

