
                                 *****************
                                 * O   R   C   A *
                                 *****************

           --- An Ab Initio, DFT and Semiempirical electronic structure package ---

                  #######################################################
                  #                        -***-                        #
                  #  Department of molecular theory and spectroscopy    #
                  #              Directorship: Frank Neese              #
                  # Max Planck Institute for Chemical Energy Conversion #
                  #                  D-45470 Muelheim/Ruhr              #
                  #                       Germany                       #
                  #                                                     #
                  #                  All rights reserved                #
                  #                        -***-                        #
                  #######################################################


                         Program Version 3.0.3 - RELEASE   -


 With contributions from (in alphabetic order):
   Ute Becker             : Parallelization
   Dmytro Bykov           : SCF Hessian
   Dmitry Ganyushin       : Spin-Orbit,Spin-Spin,Magnetic field MRCI
   Andreas Hansen         : Spin unrestricted coupled pair/coupled cluster methods
   Dimitrios Liakos       : Extrapolation schemes; parallel MDCI
   Robert Izsak           : Overlap fitted RIJCOSX, COSX-SCS-MP3
   Christian Kollmar      : KDIIS, OOCD, Brueckner-CCSD(T), CCSD density
   Simone Kossmann        : Meta GGA functionals, TD-DFT gradient, OOMP2, MP2 Hessian
   Taras Petrenko         : DFT Hessian,TD-DFT gradient, ASA and ECA modules, normal mode analysis, Resonance Raman, ABS, FL, XAS/XES, NRVS
   Christoph Reimann      : Effective Core Potentials
   Michael Roemelt        : Restricted open shell CIS
   Christoph Riplinger    : Improved optimizer, TS searches, QM/MM, DLPNO-CCSD
   Barbara Sandhoefer     : DKH picture change effects
   Igor Schapiro          : Molecular dynamics
   Kantharuban Sivalingam : CASSCF convergence, NEVPT2
   Boris Wezisla          : Elementary symmetry handling
   Frank Wennmohs         : Technical directorship


 We gratefully acknowledge several colleagues who have allowed us to
 interface, adapt or use parts of their codes:
   Stefan Grimme, W. Hujo, H. Kruse, T. Risthaus : VdW corrections, initial TS optimization,
                                                   DFT functionals, gCP
   Ed Valeev                                     : LibInt (2-el integral package), F12 methods
   Garnet Chan, S. Sharma, R. Olivares           : DMRG
   Ulf Ekstrom                                   : XCFun DFT Library
   Mihaly Kallay                                 : mrcc  (arbitrary order and MRCC methods)
   Andreas Klamt, Michael Diedenhofen            : otool_cosmo (COSMO solvation model)
   Frank Weinhold                                : gennbo (NPA and NBO analysis)
   Christopher J. Cramer and Donald G. Truhlar   : smd solvation model


 Your calculation uses the libint2 library for the computation of 2-el integrals
 For citations please refer to: http://libint.valeyev.net

 This ORCA versions uses:
   CBLAS   interface :  Fast vector & matrix operations
   LAPACKE interface :  Fast linear algebra routines
   SCALAPACK package :  Parallel linear algebra routines


leaving
================================================================================
                                        WARNINGS
                       Please study these warnings very carefully!
================================================================================
Now building the actual basis set

WARNING: Direct SCF is incompatible with Method<>HF and Method<>DFT
  ===> : conventional SCF is chosen

WARNING: The NDO methods need Guess=HUECKEL or Guess=HCORE or Guess=MOREAD
  ===> : Guess is set to Hueckel

WARNING: The NDO methods need %rel::SOCType==1
  ===> : %rel::SOCType is set to 1

WARNING: The NDO methods cannot have frozencore=1
  ===> : %method FrozenCore=0 end


INFO   : the flag for use of LIBINT has been found!

================================================================================
                                       INPUT FILE
================================================================================
NAME = /Users/mattyjones/GoogleDrive/Boise/Code/MorphCT/tests/output_EZ/donor_polymer/chromophores/input_orca/single/00012.inp
|  1> # ================================================================
|  2> # Orca input file made by Matty Jones
|  3> # ================================================================
|  4> ! ZINDO/S 
|  5> ! NOPOP
|  6> ! NOMOPRINT
|  7> * xyz 0   1
|  8>  C  1.47430  4.45305  -2.43902
|  9>  C  1.17454  3.09070  -2.48422
| 10>  C  1.47042  2.38735  -1.27509
| 11>  C  2.00653  3.19840  -0.27005
| 12>  S  2.08514  4.72164  -0.92118
| 13>  H  0.74262  2.56115  -3.41113
| 14>  C  1.16368  0.80090  -1.18253
| 15>  C  0.81415  -0.09089  0.22623
| 16>  C  -0.71927  -0.26914  0.92500
| 17>  H  -0.57494  -0.37489  2.06741
| 18>  H  -1.32216  0.69191  0.71224
| 19>  H  1.07307  -1.18430  -0.11343
| 20>  H  1.55037  0.14836  1.04932
| 21>  H  2.09214  0.24623  -1.64085
| 22>  H  0.25598  0.56752  -1.87979
| 23>  C  -1.51066  -1.56921  0.34802
| 24>  C  -1.12729  -3.05032  1.07673
| 25>  C  -2.11184  -3.53131  2.35272
| 26>  H  -1.58214  -3.30167  3.35556
| 27>  H  -2.30624  -4.67038  2.27083
| 28>  H  -3.11924  -2.96486  2.30518
| 29>  H  -0.04590  -2.97960  1.47118
| 30>  H  -1.18134  -3.86331  0.26062
| 31>  H  -2.64877  -1.40682  0.48742
| 32>  H  -1.29399  -1.67798  -0.78314
| 33>  H  1.33982  5.16575  -3.21205
| 34>  H  2.30102  2.90173  0.70404
| 35> *
| 36> 
| 37>                          ****END OF INPUT****
================================================================================

                       ****************************
                       * Single Point Calculation *
                       ****************************

---------------------------------
CARTESIAN COORDINATES (ANGSTROEM)
---------------------------------
  C      1.474300    4.453050   -2.439020
  C      1.174540    3.090700   -2.484220
  C      1.470420    2.387350   -1.275090
  C      2.006530    3.198400   -0.270050
  S      2.085140    4.721640   -0.921180
  H      0.742620    2.561150   -3.411130
  C      1.163680    0.800900   -1.182530
  C      0.814150   -0.090890    0.226230
  C     -0.719270   -0.269140    0.925000
  H     -0.574940   -0.374890    2.067410
  H     -1.322160    0.691910    0.712240
  H      1.073070   -1.184300   -0.113430
  H      1.550370    0.148360    1.049320
  H      2.092140    0.246230   -1.640850
  H      0.255980    0.567520   -1.879790
  C     -1.510660   -1.569210    0.348020
  C     -1.127290   -3.050320    1.076730
  C     -2.111840   -3.531310    2.352720
  H     -1.582140   -3.301670    3.355560
  H     -2.306240   -4.670380    2.270830
  H     -3.119240   -2.964860    2.305180
  H     -0.045900   -2.979600    1.471180
  H     -1.181340   -3.863310    0.260620
  H     -2.648770   -1.406820    0.487420
  H     -1.293990   -1.677980   -0.783140
  H      1.339820    5.165750   -3.212050
  H      2.301020    2.901730    0.704040

----------------------------
CARTESIAN COORDINATES (A.U.)
----------------------------
  NO LB      ZA    FRAG    MASS        X           Y           Z
   0 C     4.0000    0    12.011          2.786023239240101          8.415044960658030         -4.609079835156612
   1 C     4.0000    0    12.011          2.219558933335867          5.840576562110413         -4.694495456409852
   2 C     4.0000    0    12.011          2.778691101840487          4.511437685816900         -2.409570896101649
   3 C     4.0000    0    12.011          3.791792179497009          6.044100066733731         -0.510320542465434
   4 S     6.0000    0    32.060          3.940343550884559          8.922606502967938         -1.740777920045579
   5 H     1.0000    0     1.008          1.403348421572600          4.839872087892414         -6.446101507202799
   6 C     4.0000    0    12.011          2.199036507521482          1.513481660657530         -2.234657845145898
   7 C     4.0000    0    12.011          1.538520531931987         -0.171757208312103          0.427512743277005
   8 C     4.0000    0    12.011         -1.359223316345539         -0.508600891683566          1.747996673877158
   9 H     1.0000    0     1.008         -1.086479143436685         -0.708439430345738          3.906838706530135
  10 H     1.0000    0     1.008         -2.498520305225322          1.307520409321453          1.345938541624072
  11 H     1.0000    0     1.008          2.027808422526877         -2.238002660402938         -0.214351635370688
  12 H     1.0000    0     1.008          2.929774706247491          0.280359769228557          1.982927426846248
  13 H     1.0000    0     1.008          3.953571633822007          0.465307265955430         -3.100757126844686
  14 H     1.0000    0     1.008          0.483732095761162          1.072457375522989         -3.552288289283830
  15 C     4.0000    0    12.011         -2.854733681469478         -2.965377146610567          0.657662489127274
  16 C     4.0000    0    12.011         -2.130269373508088         -5.764269420822672          2.034724820177029
  17 C     4.0000    0    12.011         -3.990799238660256         -6.673208793977455          4.445996469799208
  18 H     1.0000    0     1.008         -2.989811305522169         -6.239252084583780          6.341089425940796
  19 H     1.0000    0     1.008         -4.358161999094547         -8.825739141343135          4.291246796692396
  20 H     1.0000    0     1.008         -5.894509345972525         -5.602773425417761          4.356158889392591
  21 H     1.0000    0     1.008         -0.086738429546985         -5.630627988631762          2.780127293702267
  22 H     1.0000    0     1.008         -2.232409071046531         -7.300597870439311          0.492500425022557
  23 H     1.0000    0     1.008         -5.005449891746593         -2.658504519723095          0.921090312195897
  24 H     1.0000    0     1.008         -2.445286720032760         -3.170922658197182         -1.479920124519089
  25 H     1.0000    0     1.008          2.531892868750371          9.761852776303705         -6.069894828461757
  26 H     1.0000    0     1.008          4.348297628675478          5.483475014583314          1.330442787325918

--------------------------------
INTERNAL COORDINATES (ANGSTROEM)
--------------------------------
 C      0   0   0   0.000000     0.000     0.000
 C      1   0   0   1.395671     0.000     0.000
 C      2   1   0   1.429770   114.101     0.000
 C      3   2   1   1.398328   113.693     0.000
 S      1   2   3   1.658042   105.480     0.000
 H      2   1   3   1.151582   123.745   180.943
 C      3   2   1   1.618481   119.429   179.597
 C      7   3   2   1.703545   126.820   207.233
 C      8   7   3   1.694529   125.574    85.556
 H      9   8   7   1.156337   107.702   211.259
 H      9   8   7   1.154279   108.003   328.692
 H      8   7   3   1.173863   101.717   200.754
 H      8   7   3   1.129928   110.969   312.380
 H      7   3   2   1.174629   106.903    84.701
 H      7   3   2   1.168143   107.997   330.241
 C      9   8   7   1.627693   112.199    90.376
 C     16   9   8   1.694603   115.828    83.104
 C     17  16   9   1.681916   116.344    93.609
 H     18  17  16   1.157154   109.437   259.423
 H     18  17  16   1.158438   109.014   139.731
 H     18  17  16   1.156711   109.791    19.881
 H     17  16   9   1.153255   107.795   332.366
 H     17  16   9   1.153217   107.532   214.719
 H     16   9   8   1.158058   108.854   203.729
 H     16   9   8   1.156849   109.308   321.911
 H      1   2   3   1.060001   127.260   180.000
 H      4   3   2   1.059995   127.206   180.000

---------------------------
INTERNAL COORDINATES (A.U.)
---------------------------
 C      0   0   0   0.000000     0.000     0.000
 C      1   0   0   2.637435     0.000     0.000
 C      2   1   0   2.701873   114.101     0.000
 C      3   2   1   2.642457   113.693     0.000
 S      1   2   3   3.133246   105.480     0.000
 H      2   1   3   2.176174   123.745   180.943
 C      3   2   1   3.058486   119.429   179.597
 C      7   3   2   3.219233   126.820   207.233
 C      8   7   3   3.202196   125.574    85.556
 H      9   8   7   2.185160   107.702   211.259
 H      9   8   7   2.181271   108.003   328.692
 H      8   7   3   2.218279   101.717   200.754
 H      8   7   3   2.135255   110.969   312.380
 H      7   3   2   2.219728   106.903    84.701
 H      7   3   2   2.207470   107.997   330.241
 C      9   8   7   3.075895   112.199    90.376
 C     16   9   8   3.202335   115.828    83.104
 C     17  16   9   3.178360   116.344    93.609
 H     18  17  16   2.186704   109.437   259.423
 H     18  17  16   2.189130   109.014   139.731
 H     18  17  16   2.185867   109.791    19.881
 H     17  16   9   2.179336   107.795   332.366
 H     17  16   9   2.179264   107.532   214.719
 H     16   9   8   2.188412   108.854   203.729
 H     16   9   8   2.186128   109.308   321.911
 H      1   2   3   2.003111   127.260   180.000
 H      4   3   2   2.003100   127.206   180.000

----------------------------
SLATER BASIS SET DIM=  60
----------------------------
  0 C     2 shells
 l=0 nsto= 1
    2       1.625000000000        1.000000000000
 l=1 nsto= 1
    2       1.625000000000        1.000000000000
  1 C     2 shells
 l=0 nsto= 1
    2       1.625000000000        1.000000000000
 l=1 nsto= 1
    2       1.625000000000        1.000000000000
  2 C     2 shells
 l=0 nsto= 1
    2       1.625000000000        1.000000000000
 l=1 nsto= 1
    2       1.625000000000        1.000000000000
  3 C     2 shells
 l=0 nsto= 1
    2       1.625000000000        1.000000000000
 l=1 nsto= 1
    2       1.625000000000        1.000000000000
  4 S     2 shells
 l=0 nsto= 1
    3       1.925000000000        1.000000000000
 l=1 nsto= 1
    3       1.925000000000        1.000000000000
  5 H     1 shells
 l=0 nsto= 1
    1       1.200000000000        1.000000000000
  6 C     2 shells
 l=0 nsto= 1
    2       1.625000000000        1.000000000000
 l=1 nsto= 1
    2       1.625000000000        1.000000000000
  7 C     2 shells
 l=0 nsto= 1
    2       1.625000000000        1.000000000000
 l=1 nsto= 1
    2       1.625000000000        1.000000000000
  8 C     2 shells
 l=0 nsto= 1
    2       1.625000000000        1.000000000000
 l=1 nsto= 1
    2       1.625000000000        1.000000000000
  9 H     1 shells
 l=0 nsto= 1
    1       1.200000000000        1.000000000000
 10 H     1 shells
 l=0 nsto= 1
    1       1.200000000000        1.000000000000
 11 H     1 shells
 l=0 nsto= 1
    1       1.200000000000        1.000000000000
 12 H     1 shells
 l=0 nsto= 1
    1       1.200000000000        1.000000000000
 13 H     1 shells
 l=0 nsto= 1
    1       1.200000000000        1.000000000000
 14 H     1 shells
 l=0 nsto= 1
    1       1.200000000000        1.000000000000
 15 C     2 shells
 l=0 nsto= 1
    2       1.625000000000        1.000000000000
 l=1 nsto= 1
    2       1.625000000000        1.000000000000
 16 C     2 shells
 l=0 nsto= 1
    2       1.625000000000        1.000000000000
 l=1 nsto= 1
    2       1.625000000000        1.000000000000
 17 C     2 shells
 l=0 nsto= 1
    2       1.625000000000        1.000000000000
 l=1 nsto= 1
    2       1.625000000000        1.000000000000
 18 H     1 shells
 l=0 nsto= 1
    1       1.200000000000        1.000000000000
 19 H     1 shells
 l=0 nsto= 1
    1       1.200000000000        1.000000000000
 20 H     1 shells
 l=0 nsto= 1
    1       1.200000000000        1.000000000000
 21 H     1 shells
 l=0 nsto= 1
    1       1.200000000000        1.000000000000
 22 H     1 shells
 l=0 nsto= 1
    1       1.200000000000        1.000000000000
 23 H     1 shells
 l=0 nsto= 1
    1       1.200000000000        1.000000000000
 24 H     1 shells
 l=0 nsto= 1
    1       1.200000000000        1.000000000000
 25 H     1 shells
 l=0 nsto= 1
    1       1.200000000000        1.000000000000
 26 H     1 shells
 l=0 nsto= 1
    1       1.200000000000        1.000000000000
------------------------------------------------------------------------------
                           ORCA NDO INTEGRAL CALCULATION
------------------------------------------------------------------------------

--------------
NDO PARAMETERS
--------------

Gamma integral treatment              ... Mataga-Nishimoto
Nuclear repulsuion treatment          ... Direct (ZA*ZB/RAB)
Interaction factors:
s-s (sigma) =    1.0000
s-p (sigma) =    1.0000
s-d (sigma) =    1.0000
p-p (sigma) =    1.2670  p-p(pi) =    0.5850
p-d (sigma) =    1.0000  p-d(pi) =    1.0000
d-d (sigma) =    1.0000  d-d(pi) =    1.0000 d-d (delta) =    1.0000

fGamma parameter for Mataga-Nishimoto gamma integrals:    1.2000

--------------------------
Parameters for Element H :
--------------------------
 One-electron parameters (in eV)
  U(s)  =   -13.060000 Beta(s) =    12.000000 Neff(s) =     1.000000
 One-center electron repulsion parameters (in eV)
  G(s,s)=    12.850000
--------------------------
Parameters for Element C :
--------------------------
 One-electron parameters (in eV)
  U(s)  =   -50.870766 Beta(s) =    17.000000 Neff(s) =     2.000000
  U(p)  =   -41.599980 Beta(p) =    17.000000 Neff(p) =     2.000000 
 One-center electron repulsion parameters (in eV)
  G(s,s)=    11.110000
  G(s,p)=    11.110000 G(p,p)  =    11.110000
 Slater-Condon parameters (in eV)
 F2(p,p)=     4.5098 G1(s,p)=    6.8977
--------------------------
Parameters for Element S :
--------------------------
 One-electron parameters (in eV)
  U(s)  =   -69.509597 Beta(s) =    15.000000 Neff(s) =     2.000000
  U(p)  =   -60.725746 Beta(p) =    15.000000 Neff(p) =     4.000000 
 One-center electron repulsion parameters (in eV)
  G(s,s)=    10.090000
  G(s,p)=    10.090000 G(p,p)  =    10.090000
 Slater-Condon parameters (in eV)
 F2(p,p)=     4.5377 G1(s,p)=    3.0756

 Number of atoms                    ....   27
 Number of basis functions          ....   60

 Overlap integrals                  .... done
 One electron matrix                .... done
 Nuclear repulsion                  .... done
 Integral list                      .... done
 Electron-electron repulsion        .... done
-------------------------------------------------------------------------------
                                 ORCA SCF
-------------------------------------------------------------------------------

------------
SCF SETTINGS
------------
Hamiltonian:
 ZDO-Hamiltonian        Method          .... INDO


General Settings:
 Integral files         IntName         .... /Users/mattyjones/GoogleDrive/Boise/Code/MorphCT/tests/output_EZ/donor_polymer/chromophores/input_orca/single/00012
 Hartree-Fock type      HFTyp           .... RHF
 Total Charge           Charge          ....    0
 Multiplicity           Mult            ....    1
 Number of Electrons    NEL             ....   62
 Basis Dimension        Dim             ....   60
 Nuclear Repulsion      ENuc            ....    291.1300564679 Eh

Convergence Acceleration:
 DIIS                   CNVDIIS         .... on
   Start iteration      DIISMaxIt       ....    12
   Startup error        DIISStart       ....  0.200000
   # of expansion vecs  DIISMaxEq       ....     5
   Bias factor          DIISBfac        ....   1.050
   Max. coefficient     DIISMaxC        ....  10.000
 Newton-Raphson         CNVNR           .... off
 SOSCF                  CNVSOSCF        .... on
   Start iteration      SOSCFMaxIt      ....   150
   Startup grad/error   SOSCFStart      ....  0.003300
 Level Shifting         CNVShift        .... on
   Level shift para.    LevelShift      ....    0.2500
   Turn off err/grad.   ShiftErr        ....    0.0010
 Zerner damping         CNVZerner       .... off
 Static damping         CNVDamp         .... on
   Fraction old density DampFac         ....    0.7000
   Max. Damping (<1)    DampMax         ....    0.9800
   Min. Damping (>=0)   DampMin         ....    0.0000
   Turn off err/grad.   DampErr         ....    0.1000
 Fernandez-Rico         CNVRico         .... off

SCF Procedure:
 Maximum # iterations   MaxIter         ....   125
 SCF integral mode      SCFMode         .... Conventional
 Integral Buffer length BufferLength    .... 1048576
 Integral index format  IndFormat       ....     0
 Integral value format  ValFormat       ....     0
 Integral Storage       Thresh          ....  1.000e-08 Eh

Convergence Tolerance:
 Convergence Check Mode ConvCheckMode   .... Total+1el-Energy
 Energy Change          TolE            ....  1.000e-06 Eh
 1-El. energy change                    ....  1.000e-03 Eh
 Orbital Gradient       TolG            ....  5.000e-05
 Orbital Rotation angle TolX            ....  5.000e-05
 DIIS Error             TolErr          ....  1.000e-06


Diagonalization of the overlap matrix:
Smallest eigenvalue                        ... 1.698e-01
Time for diagonalization                   ...    0.001 sec
Threshold for overlap eigenvalues          ... 1.000e-08
Number of eigenvalues below threshold      ... 0
Time for construction of square roots      ...    0.000 sec
Total time needed                          ...    0.002 sec

-------------------------------
INITIAL GUESS: EXTENDED HUECKEL
-------------------------------
EHT matrix was read from disk
EHT matrix was diagonalized
Initial density was built
                      ------------------
                      INITIAL GUESS DONE
                      ------------------

 InCore treatment chosen:
   Memory dedicated               ...    1024 MB
   Memory needed                  ...      0 MB
   Number of tiny    integrals    ...       0
   Number of small   integrals    ...       0
   Number of regular integrals    ...    1896

--------------
SCF ITERATIONS
--------------
ITER       Energy         Delta-E        Max-DP      RMS-DP      [F,P]     Damp
  0     -7.4974636617   0.000000000000 0.04319475  0.00203708  0.1020321 0.7000
  1     -7.5182848518  -0.020821190110 0.04227866  0.00191930  0.0698848 0.7000
                               ***Turning on DIIS***
  2     -7.5336868365  -0.015401984701 0.11182249  0.00492940  0.0424499 0.0000
  3     -7.5751849869  -0.041498150343 0.01959533  0.00103940  0.0197293 0.0000
  4     -7.5660950780   0.009089908851 0.01450472  0.00070874  0.0082056 0.0000
  5     -7.5749501494  -0.008855071329 0.01023505  0.00047838  0.0048686 0.0000
  6     -7.5758093813  -0.000859231960 0.00753003  0.00033820  0.0027632 0.0000
                      *** Initiating the SOSCF procedure ***
                           *** Shutting down DIIS ***
                      *** Re-Reading the Fockian *** 
                      *** Removing any level shift *** 
ITER      Energy       Delta-E        Grad      Rot      Max-DP    RMS-DP
  7     -7.57393822   0.0018711589  0.002998  0.002998  0.004507  0.000190
  8     -7.57316233   0.0007758917  0.000795  0.002180  0.002241  0.000087
  9     -7.57316944  -0.0000071057  0.000351  0.002131  0.002497  0.000092
 10     -7.57317203  -0.0000025952  0.000027  0.000058  0.000128  0.000005
                 **** Energy Check signals convergence ****
              ***Rediagonalizing the Fockian in SOSCF/NRSCF***

               *****************************************************
               *                     SUCCESS                       *
               *           SCF CONVERGED AFTER  11 CYCLES          *
               *****************************************************


----------------
TOTAL SCF ENERGY
----------------

Total Energy       :           -7.57317205 Eh            -206.07649 eV

Components:
Nuclear Repulsion  :          291.13005647 Eh            7922.05159 eV
Electronic Energy  :         -298.70322852 Eh           -8128.12807 eV

One Electron Energy:         -552.20394636 Eh          -15026.23330 eV
Two Electron Energy:          253.50071784 Eh            6898.10523 eV


---------------
SCF CONVERGENCE
---------------

  Last Energy change         ...   -2.1765e-08  Tolerance :   1.0000e-06
  Last MAX-Density change    ...    4.4825e-05  Tolerance :   1.0000e-05
  Last RMS-Density change    ...    1.7408e-06  Tolerance :   1.0000e-06
  Last Orbital Gradient      ...    7.3059e-06  Tolerance :   5.0000e-05
  Last Orbital Rotation      ...    1.8197e-05  Tolerance :   5.0000e-05

             **** THE GBW FILE WAS UPDATED (/Users/mattyjones/GoogleDrive/Boise/Code/MorphCT/tests/output_EZ/donor_polymer/chromophores/input_orca/single/00012.gbw) ****
             **** DENSITY FILE WAS UPDATED (/Users/mattyjones/GoogleDrive/Boise/Code/MorphCT/tests/output_EZ/donor_polymer/chromophores/input_orca/single/00012.scfp.tmp) ****
             **** ENERGY FILE WAS UPDATED (/Users/mattyjones/GoogleDrive/Boise/Code/MorphCT/tests/output_EZ/donor_polymer/chromophores/input_orca/single/00012.en.tmp) ****
----------------
ORBITAL ENERGIES
----------------

  NO   OCC          E(Eh)            E(eV) 
   0   2.0000      -1.555442       -42.3257 
   1   2.0000      -1.405695       -38.2509 
   2   2.0000      -1.281545       -34.8726 
   3   2.0000      -1.180636       -32.1267 
   4   2.0000      -1.108742       -30.1704 
   5   2.0000      -1.052047       -28.6276 
   6   2.0000      -0.972501       -26.4631 
   7   2.0000      -0.901598       -24.5337 
   8   2.0000      -0.843587       -22.9552 
   9   2.0000      -0.831842       -22.6356 
  10   2.0000      -0.783767       -21.3274 
  11   2.0000      -0.708025       -19.2663 
  12   2.0000      -0.698387       -19.0041 
  13   2.0000      -0.695761       -18.9326 
  14   2.0000      -0.625136       -17.0108 
  15   2.0000      -0.621700       -16.9173 
  16   2.0000      -0.588701       -16.0194 
  17   2.0000      -0.575801       -15.6683 
  18   2.0000      -0.562583       -15.3086 
  19   2.0000      -0.558175       -15.1887 
  20   2.0000      -0.536550       -14.6003 
  21   2.0000      -0.523248       -14.2383 
  22   2.0000      -0.501848       -13.6560 
  23   2.0000      -0.492995       -13.4151 
  24   2.0000      -0.487821       -13.2743 
  25   2.0000      -0.479910       -13.0590 
  26   2.0000      -0.472719       -12.8633 
  27   2.0000      -0.455501       -12.3948 
  28   2.0000      -0.436672       -11.8825 
  29   2.0000      -0.357008        -9.7147 
  30   2.0000      -0.305314        -8.3080 
  31   0.0000       0.007575         0.2061 
  32   0.0000       0.066436         1.8078 
  33   0.0000       0.074666         2.0318 
  34   0.0000       0.086309         2.3486 
  35   0.0000       0.102108         2.7785 
  36   0.0000       0.106887         2.9086 
  37   0.0000       0.124172         3.3789 
  38   0.0000       0.143171         3.8959 
  39   0.0000       0.161061         4.3827 
  40   0.0000       0.164648         4.4803 
  41   0.0000       0.168428         4.5832 
  42   0.0000       0.202934         5.5221 
  43   0.0000       0.228984         6.2310 
  44   0.0000       0.232184         6.3181 
  45   0.0000       0.234480         6.3805 
  46   0.0000       0.236747         6.4422 
  47   0.0000       0.239349         6.5130 
  48   0.0000       0.242976         6.6117 
  49   0.0000       0.245100         6.6695 
  50   0.0000       0.252649         6.8749 
  51   0.0000       0.260609         7.0915 
  52   0.0000       0.266616         7.2550 
  53   0.0000       0.286609         7.7990 
  54   0.0000       0.305399         8.3103 
  55   0.0000       0.310739         8.4556 
  56   0.0000       0.338689         9.2162 
  57   0.0000       0.352621         9.5953 
  58   0.0000       0.414414        11.2768 
  59   0.0000       0.430646        11.7185 
-------
TIMINGS
-------

Total SCF time: 0 days 0 hours 0 min 0 sec 

Total time                  ....       0.064 sec
Sum of individual times     ....       0.053 sec  ( 82.6%)

Fock matrix formation       ....       0.041 sec  ( 63.5%)
Diagonalization             ....       0.005 sec  (  7.6%)
Density matrix formation    ....       0.001 sec  (  1.1%)
Population analysis         ....       0.000 sec  (  0.0%)
Initial guess               ....       0.001 sec  (  0.8%)
Orbital Transformation      ....       0.000 sec  (  0.0%)
Orbital Orthonormalization  ....       0.000 sec  (  0.0%)
DIIS solution               ....       0.004 sec  (  6.9%)
SOSCF solution              ....       0.002 sec  (  2.7%)

-------------------------   --------------------
FINAL SINGLE POINT ENERGY        -7.573172053399
-------------------------   --------------------


                            ***************************************
                            *     ORCA property calculations      *
                            ***************************************

                                    ---------------------
                                    Active property flags
                                    ---------------------
   (+) Dipole Moment


------------------------------------------------------------------------------
                       ORCA ELECTRIC PROPERTIES CALCULATION
------------------------------------------------------------------------------

Dipole Moment Calculation                       ... on
Quadrupole Moment Calculation                   ... off
Polarizability Calculation                      ... off
GBWName                                         ... /Users/mattyjones/GoogleDrive/Boise/Code/MorphCT/tests/output_EZ/donor_polymer/chromophores/input_orca/single/00012.gbw
Electron density file                           ... /Users/mattyjones/GoogleDrive/Boise/Code/MorphCT/tests/output_EZ/donor_polymer/chromophores/input_orca/single/00012.scfp.tmp

-------------
DIPOLE MOMENT
-------------
                                X             Y             Z
Electronic contribution:     56.79456     126.77833     -29.87931
Nuclear contribution   :    -30.61801     -68.24474      16.62869
                        -----------------------------------------
Total Dipole Moment    :     26.17656      58.53359     -13.25062
                        -----------------------------------------
Magnitude (a.u.)       :     65.47497
Magnitude (Debye)      :    166.42415


Timings for individual modules:

Sum of individual times         ...        0.123 sec (=   0.002 min)
STO integral calculation        ...        0.032 sec (=   0.001 min)  25.9 %
SCF iterations                  ...        0.091 sec (=   0.002 min)  74.1 %
                             ****ORCA TERMINATED NORMALLY****
TOTAL RUN TIME: 0 days 0 hours 0 minutes 0 seconds 443 msec

