
                                 *****************
                                 * O   R   C   A *
                                 *****************

           --- An Ab Initio, DFT and Semiempirical electronic structure package ---

                  #######################################################
                  #                        -***-                        #
                  #  Department of molecular theory and spectroscopy    #
                  #              Directorship: Frank Neese              #
                  # Max Planck Institute for Chemical Energy Conversion #
                  #                  D-45470 Muelheim/Ruhr              #
                  #                       Germany                       #
                  #                                                     #
                  #                  All rights reserved                #
                  #                        -***-                        #
                  #######################################################


                         Program Version 3.0.3 - RELEASE   -


 With contributions from (in alphabetic order):
   Ute Becker             : Parallelization
   Dmytro Bykov           : SCF Hessian
   Dmitry Ganyushin       : Spin-Orbit,Spin-Spin,Magnetic field MRCI
   Andreas Hansen         : Spin unrestricted coupled pair/coupled cluster methods
   Dimitrios Liakos       : Extrapolation schemes; parallel MDCI
   Robert Izsak           : Overlap fitted RIJCOSX, COSX-SCS-MP3
   Christian Kollmar      : KDIIS, OOCD, Brueckner-CCSD(T), CCSD density
   Simone Kossmann        : Meta GGA functionals, TD-DFT gradient, OOMP2, MP2 Hessian
   Taras Petrenko         : DFT Hessian,TD-DFT gradient, ASA and ECA modules, normal mode analysis, Resonance Raman, ABS, FL, XAS/XES, NRVS
   Christoph Reimann      : Effective Core Potentials
   Michael Roemelt        : Restricted open shell CIS
   Christoph Riplinger    : Improved optimizer, TS searches, QM/MM, DLPNO-CCSD
   Barbara Sandhoefer     : DKH picture change effects
   Igor Schapiro          : Molecular dynamics
   Kantharuban Sivalingam : CASSCF convergence, NEVPT2
   Boris Wezisla          : Elementary symmetry handling
   Frank Wennmohs         : Technical directorship


 We gratefully acknowledge several colleagues who have allowed us to
 interface, adapt or use parts of their codes:
   Stefan Grimme, W. Hujo, H. Kruse, T. Risthaus : VdW corrections, initial TS optimization,
                                                   DFT functionals, gCP
   Ed Valeev                                     : LibInt (2-el integral package), F12 methods
   Garnet Chan, S. Sharma, R. Olivares           : DMRG
   Ulf Ekstrom                                   : XCFun DFT Library
   Mihaly Kallay                                 : mrcc  (arbitrary order and MRCC methods)
   Andreas Klamt, Michael Diedenhofen            : otool_cosmo (COSMO solvation model)
   Frank Weinhold                                : gennbo (NPA and NBO analysis)
   Christopher J. Cramer and Donald G. Truhlar   : smd solvation model


 Your calculation uses the libint2 library for the computation of 2-el integrals
 For citations please refer to: http://libint.valeyev.net

 This ORCA versions uses:
   CBLAS   interface :  Fast vector & matrix operations
   LAPACKE interface :  Fast linear algebra routines
   SCALAPACK package :  Parallel linear algebra routines


leaving
================================================================================
                                        WARNINGS
                       Please study these warnings very carefully!
================================================================================
Now building the actual basis set

WARNING: Direct SCF is incompatible with Method<>HF and Method<>DFT
  ===> : conventional SCF is chosen

WARNING: The NDO methods need Guess=HUECKEL or Guess=HCORE or Guess=MOREAD
  ===> : Guess is set to Hueckel

WARNING: The NDO methods need %rel::SOCType==1
  ===> : %rel::SOCType is set to 1

WARNING: The NDO methods cannot have frozencore=1
  ===> : %method FrozenCore=0 end


INFO   : the flag for use of LIBINT has been found!

================================================================================
                                       INPUT FILE
================================================================================
NAME = /Users/mattyjones/GoogleDrive/Boise/Code/MorphCT/tests/output_EZ/donor_polymer/chromophores/input_orca/single/00017.inp
|  1> # ================================================================
|  2> # Orca input file made by Matty Jones
|  3> # ================================================================
|  4> ! ZINDO/S 
|  5> ! NOPOP
|  6> ! NOMOPRINT
|  7> * xyz 0   1
|  8>  C  5.00458  -0.30775  0.39811
|  9>  C  3.90331  -0.82708  -0.28409
| 10>  C  2.75588  0.02592  -0.27565
| 11>  C  2.95210  1.22486  0.41672
| 12>  S  4.51299  1.16724  0.97417
| 13>  H  4.06656  -1.08788  -1.45445
| 14>  C  1.43975  -0.50014  -1.05241
| 15>  C  -0.15876  -0.12383  -0.66848
| 16>  C  -0.89039  -1.05570  0.52946
| 17>  H  -0.53157  -2.14752  0.40986
| 18>  H  -0.52562  -0.65353  1.55168
| 19>  H  -0.21031  0.98098  -0.35557
| 20>  H  -0.77705  -0.26867  -1.63603
| 21>  H  1.45981  -1.67225  -1.04290
| 22>  H  1.54928  -0.18595  -2.18027
| 23>  C  -2.51787  -1.00621  0.47105
| 24>  C  -3.25294  0.40778  1.02375
| 25>  C  -3.53920  1.51014  -0.22012
| 26>  H  -2.75676  2.36032  -0.16354
| 27>  H  -4.60268  1.95061  -0.09755
| 28>  H  -3.46004  0.97946  -1.24523
| 29>  H  -4.26083  0.13444  1.50874
| 30>  H  -2.56750  0.90540  1.80316
| 31>  H  -2.86648  -1.18841  -0.61707
| 32>  H  -2.93129  -1.86827  1.12870
| 33>  H  5.95487  -0.76078  0.52186
| 34>  H  2.25017  2.00681  0.55610
| 35> *
| 36> 
| 37>                          ****END OF INPUT****
================================================================================

                       ****************************
                       * Single Point Calculation *
                       ****************************

---------------------------------
CARTESIAN COORDINATES (ANGSTROEM)
---------------------------------
  C      5.004580   -0.307750    0.398110
  C      3.903310   -0.827080   -0.284090
  C      2.755880    0.025920   -0.275650
  C      2.952100    1.224860    0.416720
  S      4.512990    1.167240    0.974170
  H      4.066560   -1.087880   -1.454450
  C      1.439750   -0.500140   -1.052410
  C     -0.158760   -0.123830   -0.668480
  C     -0.890390   -1.055700    0.529460
  H     -0.531570   -2.147520    0.409860
  H     -0.525620   -0.653530    1.551680
  H     -0.210310    0.980980   -0.355570
  H     -0.777050   -0.268670   -1.636030
  H      1.459810   -1.672250   -1.042900
  H      1.549280   -0.185950   -2.180270
  C     -2.517870   -1.006210    0.471050
  C     -3.252940    0.407780    1.023750
  C     -3.539200    1.510140   -0.220120
  H     -2.756760    2.360320   -0.163540
  H     -4.602680    1.950610   -0.097550
  H     -3.460040    0.979460   -1.245230
  H     -4.260830    0.134440    1.508740
  H     -2.567500    0.905400    1.803160
  H     -2.866480   -1.188410   -0.617070
  H     -2.931290   -1.868270    1.128700
  H      5.954870   -0.760780    0.521860
  H      2.250170    2.006810    0.556100

----------------------------
CARTESIAN COORDINATES (A.U.)
----------------------------
  NO LB      ZA    FRAG    MASS        X           Y           Z
   0 C     4.0000    0    12.011          9.457285615299618         -0.581563217714265          0.752318871175390
   1 C     4.0000    0    12.011          7.376186915796160         -1.562954690843589         -0.536852297385688
   2 C     4.0000    0    12.011          5.207858457950898          0.048981701391239         -0.520903008815393
   3 C     4.0000    0    12.011          5.578660519948928          2.314649952394785          0.787486674527664
   4 S     6.0000    0    32.060          8.528315145125269          2.205763932558242          1.840914507882066
   5 H     1.0000    0     1.008          7.684684707158805         -2.055795266570251         -2.748512175481765
   6 C     4.0000    0    12.011          2.720733201313122         -0.945127628619375         -1.988766680600065
   7 C     4.0000    0    12.011         -0.300012921021338         -0.234004787163469         -1.263244126003678
   8 C     4.0000    0    12.011         -1.682593252382143         -1.994983879580666          1.000534398865946
   9 H     1.0000    0     1.008         -1.004521721008520         -4.058224667118567          0.774523153248964
  10 H     1.0000    0     1.008         -0.993277850511688         -1.234992720301556          2.932250247482928
  11 H     1.0000    0     1.008         -0.397428303224978          1.853783542854069         -0.671929921438379
  12 H     1.0000    0     1.008         -1.468411692363509         -0.507712720400623         -3.091648646879186
  13 H     1.0000    0     1.008          2.758641107559582         -3.160094527449813         -1.970795385066473
  14 H     1.0000    0     1.008          2.927714904761517         -0.351394574602657         -4.120113198004487
  15 C     4.0000    0    12.011         -4.758084740816302         -1.901461333212903          0.890155495383606
  16 C     4.0000    0    12.011         -6.147165730077797          0.770592522890408          1.934607129601881
  17 C     4.0000    0    12.011         -6.688118733174094          2.853751023879839         -0.415966516598746
  18 H     1.0000    0     1.008         -5.209521416948750          4.460358388417009         -0.309045811941481
  19 H     1.0000    0     1.008         -8.697804682076667          3.686118694088133         -0.184342784364018
  20 H     1.0000    0     1.008         -6.538528012412887          1.850911159130509         -2.353143673742760
  21 H     1.0000    0     1.008         -8.051801803195687          0.254054781444373          2.851105407292349
  22 H     1.0000    0     1.008         -4.851871848842814          1.710958041652301          3.407478575641445
  23 H     1.0000    0     1.008         -5.416862168362590         -2.245769434813355         -1.166093305458787
  24 H     1.0000    0     1.008         -5.539335319102026         -3.530518644221057          2.132933887356917
  25 H     1.0000    0     1.008         11.253073463103643         -1.437665848164610          0.986172480248144
  26 H     1.0000    0     1.008          4.252205054765582          3.792321302814508          1.050876703073608

--------------------------------
INTERNAL COORDINATES (ANGSTROEM)
--------------------------------
 C      0   0   0   0.000000     0.000     0.000
 C      1   0   0   1.395670     0.000     0.000
 C      2   1   0   1.429782   114.102     0.000
 C      3   2   1   1.398333   113.693     0.000
 S      1   2   3   1.658041   105.480     0.000
 H      2   1   3   1.210128   116.518   121.344
 C      3   2   1   1.616259   117.160   179.655
 C      7   3   2   1.686489   126.142   150.586
 C      8   7   3   1.684851   116.746   275.850
 H      9   8   7   1.155477   108.311   322.227
 H      9   8   7   1.157468   107.392    79.545
 H      8   7   3   1.149424   108.600    38.944
 H      8   7   3   1.157331   106.746   156.213
 H      7   3   2   1.172320   107.914    27.553
 H      7   3   2   1.175917   107.346   273.855
 C      9   8   7   1.629280   113.046   200.594
 C     16   9   8   1.686764   116.681   285.318
 C     17  16   9   1.686522   112.348    93.129
 H     18  17  16   1.156814   109.238   255.945
 H     18  17  16   1.157595   109.060   136.096
 H     18  17  16   1.157038   110.001    16.186
 H     17  16   9   1.151422   108.692   213.208
 H     17  16   9   1.151058   108.952   332.825
 H     16   9   8   1.157035   109.262    48.123
 H     16   9   8   1.160417   108.240   165.473
 H      1   2   3   1.060001   127.260   180.000
 H      4   3   2   1.059990   127.206   180.000

---------------------------
INTERNAL COORDINATES (A.U.)
---------------------------
 C      0   0   0   0.000000     0.000     0.000
 C      1   0   0   2.637435     0.000     0.000
 C      2   1   0   2.701896   114.102     0.000
 C      3   2   1   2.642467   113.693     0.000
 S      1   2   3   3.133244   105.480     0.000
 H      2   1   3   2.286810   116.518   121.344
 C      3   2   1   3.054287   117.160   179.655
 C      7   3   2   3.187003   126.142   150.586
 C      8   7   3   3.183908   116.746   275.850
 H      9   8   7   2.183535   108.311   322.227
 H      9   8   7   2.187297   107.392    79.545
 H      8   7   3   2.172096   108.600    38.944
 H      8   7   3   2.187038   106.746   156.213
 H      7   3   2   2.215364   107.914    27.553
 H      7   3   2   2.222161   107.346   273.855
 C      9   8   7   3.078892   113.046   200.594
 C     16   9   8   3.187522   116.681   285.318
 C     17  16   9   3.187064   112.348    93.129
 H     18  17  16   2.186063   109.238   255.945
 H     18  17  16   2.187538   109.060   136.096
 H     18  17  16   2.186486   110.001    16.186
 H     17  16   9   2.175872   108.692   213.208
 H     17  16   9   2.175184   108.952   332.825
 H     16   9   8   2.186480   109.262    48.123
 H     16   9   8   2.192870   108.240   165.473
 H      1   2   3   2.003111   127.260   180.000
 H      4   3   2   2.003090   127.206   180.000

----------------------------
SLATER BASIS SET DIM=  60
----------------------------
  0 C     2 shells
 l=0 nsto= 1
    2       1.625000000000        1.000000000000
 l=1 nsto= 1
    2       1.625000000000        1.000000000000
  1 C     2 shells
 l=0 nsto= 1
    2       1.625000000000        1.000000000000
 l=1 nsto= 1
    2       1.625000000000        1.000000000000
  2 C     2 shells
 l=0 nsto= 1
    2       1.625000000000        1.000000000000
 l=1 nsto= 1
    2       1.625000000000        1.000000000000
  3 C     2 shells
 l=0 nsto= 1
    2       1.625000000000        1.000000000000
 l=1 nsto= 1
    2       1.625000000000        1.000000000000
  4 S     2 shells
 l=0 nsto= 1
    3       1.925000000000        1.000000000000
 l=1 nsto= 1
    3       1.925000000000        1.000000000000
  5 H     1 shells
 l=0 nsto= 1
    1       1.200000000000        1.000000000000
  6 C     2 shells
 l=0 nsto= 1
    2       1.625000000000        1.000000000000
 l=1 nsto= 1
    2       1.625000000000        1.000000000000
  7 C     2 shells
 l=0 nsto= 1
    2       1.625000000000        1.000000000000
 l=1 nsto= 1
    2       1.625000000000        1.000000000000
  8 C     2 shells
 l=0 nsto= 1
    2       1.625000000000        1.000000000000
 l=1 nsto= 1
    2       1.625000000000        1.000000000000
  9 H     1 shells
 l=0 nsto= 1
    1       1.200000000000        1.000000000000
 10 H     1 shells
 l=0 nsto= 1
    1       1.200000000000        1.000000000000
 11 H     1 shells
 l=0 nsto= 1
    1       1.200000000000        1.000000000000
 12 H     1 shells
 l=0 nsto= 1
    1       1.200000000000        1.000000000000
 13 H     1 shells
 l=0 nsto= 1
    1       1.200000000000        1.000000000000
 14 H     1 shells
 l=0 nsto= 1
    1       1.200000000000        1.000000000000
 15 C     2 shells
 l=0 nsto= 1
    2       1.625000000000        1.000000000000
 l=1 nsto= 1
    2       1.625000000000        1.000000000000
 16 C     2 shells
 l=0 nsto= 1
    2       1.625000000000        1.000000000000
 l=1 nsto= 1
    2       1.625000000000        1.000000000000
 17 C     2 shells
 l=0 nsto= 1
    2       1.625000000000        1.000000000000
 l=1 nsto= 1
    2       1.625000000000        1.000000000000
 18 H     1 shells
 l=0 nsto= 1
    1       1.200000000000        1.000000000000
 19 H     1 shells
 l=0 nsto= 1
    1       1.200000000000        1.000000000000
 20 H     1 shells
 l=0 nsto= 1
    1       1.200000000000        1.000000000000
 21 H     1 shells
 l=0 nsto= 1
    1       1.200000000000        1.000000000000
 22 H     1 shells
 l=0 nsto= 1
    1       1.200000000000        1.000000000000
 23 H     1 shells
 l=0 nsto= 1
    1       1.200000000000        1.000000000000
 24 H     1 shells
 l=0 nsto= 1
    1       1.200000000000        1.000000000000
 25 H     1 shells
 l=0 nsto= 1
    1       1.200000000000        1.000000000000
 26 H     1 shells
 l=0 nsto= 1
    1       1.200000000000        1.000000000000
------------------------------------------------------------------------------
                           ORCA NDO INTEGRAL CALCULATION
------------------------------------------------------------------------------

--------------
NDO PARAMETERS
--------------

Gamma integral treatment              ... Mataga-Nishimoto
Nuclear repulsuion treatment          ... Direct (ZA*ZB/RAB)
Interaction factors:
s-s (sigma) =    1.0000
s-p (sigma) =    1.0000
s-d (sigma) =    1.0000
p-p (sigma) =    1.2670  p-p(pi) =    0.5850
p-d (sigma) =    1.0000  p-d(pi) =    1.0000
d-d (sigma) =    1.0000  d-d(pi) =    1.0000 d-d (delta) =    1.0000

fGamma parameter for Mataga-Nishimoto gamma integrals:    1.2000

--------------------------
Parameters for Element H :
--------------------------
 One-electron parameters (in eV)
  U(s)  =   -13.060000 Beta(s) =    12.000000 Neff(s) =     1.000000
 One-center electron repulsion parameters (in eV)
  G(s,s)=    12.850000
--------------------------
Parameters for Element C :
--------------------------
 One-electron parameters (in eV)
  U(s)  =   -50.870766 Beta(s) =    17.000000 Neff(s) =     2.000000
  U(p)  =   -41.599980 Beta(p) =    17.000000 Neff(p) =     2.000000 
 One-center electron repulsion parameters (in eV)
  G(s,s)=    11.110000
  G(s,p)=    11.110000 G(p,p)  =    11.110000
 Slater-Condon parameters (in eV)
 F2(p,p)=     4.5098 G1(s,p)=    6.8977
--------------------------
Parameters for Element S :
--------------------------
 One-electron parameters (in eV)
  U(s)  =   -69.509597 Beta(s) =    15.000000 Neff(s) =     2.000000
  U(p)  =   -60.725746 Beta(p) =    15.000000 Neff(p) =     4.000000 
 One-center electron repulsion parameters (in eV)
  G(s,s)=    10.090000
  G(s,p)=    10.090000 G(p,p)  =    10.090000
 Slater-Condon parameters (in eV)
 F2(p,p)=     4.5377 G1(s,p)=    3.0756

 Number of atoms                    ....   27
 Number of basis functions          ....   60

 Overlap integrals                  .... done
 One electron matrix                .... done
 Nuclear repulsion                  .... done
 Integral list                      .... done
 Electron-electron repulsion        .... done
-------------------------------------------------------------------------------
                                 ORCA SCF
-------------------------------------------------------------------------------

------------
SCF SETTINGS
------------
Hamiltonian:
 ZDO-Hamiltonian        Method          .... INDO


General Settings:
 Integral files         IntName         .... /Users/mattyjones/GoogleDrive/Boise/Code/MorphCT/tests/output_EZ/donor_polymer/chromophores/input_orca/single/00017
 Hartree-Fock type      HFTyp           .... RHF
 Total Charge           Charge          ....    0
 Multiplicity           Mult            ....    1
 Number of Electrons    NEL             ....   62
 Basis Dimension        Dim             ....   60
 Nuclear Repulsion      ENuc            ....    296.1504184146 Eh

Convergence Acceleration:
 DIIS                   CNVDIIS         .... on
   Start iteration      DIISMaxIt       ....    12
   Startup error        DIISStart       ....  0.200000
   # of expansion vecs  DIISMaxEq       ....     5
   Bias factor          DIISBfac        ....   1.050
   Max. coefficient     DIISMaxC        ....  10.000
 Newton-Raphson         CNVNR           .... off
 SOSCF                  CNVSOSCF        .... on
   Start iteration      SOSCFMaxIt      ....   150
   Startup grad/error   SOSCFStart      ....  0.003300
 Level Shifting         CNVShift        .... on
   Level shift para.    LevelShift      ....    0.2500
   Turn off err/grad.   ShiftErr        ....    0.0010
 Zerner damping         CNVZerner       .... off
 Static damping         CNVDamp         .... on
   Fraction old density DampFac         ....    0.7000
   Max. Damping (<1)    DampMax         ....    0.9800
   Min. Damping (>=0)   DampMin         ....    0.0000
   Turn off err/grad.   DampErr         ....    0.1000
 Fernandez-Rico         CNVRico         .... off

SCF Procedure:
 Maximum # iterations   MaxIter         ....   125
 SCF integral mode      SCFMode         .... Conventional
 Integral Buffer length BufferLength    .... 1048576
 Integral index format  IndFormat       ....     0
 Integral value format  ValFormat       ....     0
 Integral Storage       Thresh          ....  1.000e-08 Eh

Convergence Tolerance:
 Convergence Check Mode ConvCheckMode   .... Total+1el-Energy
 Energy Change          TolE            ....  1.000e-06 Eh
 1-El. energy change                    ....  1.000e-03 Eh
 Orbital Gradient       TolG            ....  5.000e-05
 Orbital Rotation angle TolX            ....  5.000e-05
 DIIS Error             TolErr          ....  1.000e-06


Diagonalization of the overlap matrix:
Smallest eigenvalue                        ... 1.676e-01
Time for diagonalization                   ...    0.001 sec
Threshold for overlap eigenvalues          ... 1.000e-08
Number of eigenvalues below threshold      ... 0
Time for construction of square roots      ...    0.000 sec
Total time needed                          ...    0.002 sec

-------------------------------
INITIAL GUESS: EXTENDED HUECKEL
-------------------------------
EHT matrix was read from disk
EHT matrix was diagonalized
Initial density was built
                      ------------------
                      INITIAL GUESS DONE
                      ------------------

 InCore treatment chosen:
   Memory dedicated               ...    1024 MB
   Memory needed                  ...      0 MB
   Number of tiny    integrals    ...       0
   Number of small   integrals    ...       0
   Number of regular integrals    ...    1896

--------------
SCF ITERATIONS
--------------
ITER       Energy         Delta-E        Max-DP      RMS-DP      [F,P]     Damp
  0     -6.2108579000   0.000000000000 0.04630935  0.00224147  0.1031500 0.7000
  1     -6.2354366420  -0.024578742035 0.04493841  0.00212433  0.0701321 0.7000
                               ***Turning on DIIS***
  2     -6.2534758376  -0.018039195594 0.11758163  0.00545274  0.0425702 0.0000
  3     -6.3018710164  -0.048395178814 0.01871987  0.00112214  0.0237117 0.0000
  4     -6.2905683627   0.011302653778 0.01524529  0.00081670  0.0081957 0.0000
  5     -6.3005416319  -0.009973269279 0.01090918  0.00055873  0.0050590 0.0000
  6     -6.3013590358  -0.000817403868 0.00788184  0.00041017  0.0028654 0.0000
  7     -6.3001362893   0.001222746526 0.00457550  0.00025037  0.0016319 0.0000
                      *** Initiating the SOSCF procedure ***
                           *** Shutting down DIIS ***
                      *** Re-Reading the Fockian *** 
                      *** Removing any level shift *** 
ITER      Energy       Delta-E        Grad      Rot      Max-DP    RMS-DP
  8     -6.29971886   0.0004174311  0.002034  0.002034  0.004410  0.000239
  9     -6.29928280   0.0004360570  0.000151  0.000420  0.000570  0.000025
                 **** Energy Check signals convergence ****
              ***Rediagonalizing the Fockian in SOSCF/NRSCF***

               *****************************************************
               *                     SUCCESS                       *
               *           SCF CONVERGED AFTER  10 CYCLES          *
               *****************************************************


----------------
TOTAL SCF ENERGY
----------------

Total Energy       :           -6.29928336 Eh            -171.41221 eV

Components:
Nuclear Repulsion  :          296.15041841 Eh            8058.66258 eV
Electronic Energy  :         -302.44970178 Eh           -8230.07479 eV

One Electron Energy:         -559.77131590 Eh          -15232.15189 eV
Two Electron Energy:          257.32161412 Eh            7002.07710 eV


---------------
SCF CONVERGENCE
---------------

  Last Energy change         ...   -5.6272e-07  Tolerance :   1.0000e-06
  Last MAX-Density change    ...    6.1826e-04  Tolerance :   1.0000e-05
  Last RMS-Density change    ...    2.6862e-05  Tolerance :   1.0000e-06
  Last Orbital Gradient      ...    9.9205e-05  Tolerance :   5.0000e-05
  Last Orbital Rotation      ...    5.8926e-04  Tolerance :   5.0000e-05

             **** THE GBW FILE WAS UPDATED (/Users/mattyjones/GoogleDrive/Boise/Code/MorphCT/tests/output_EZ/donor_polymer/chromophores/input_orca/single/00017.gbw) ****
             **** DENSITY FILE WAS UPDATED (/Users/mattyjones/GoogleDrive/Boise/Code/MorphCT/tests/output_EZ/donor_polymer/chromophores/input_orca/single/00017.scfp.tmp) ****
             **** ENERGY FILE WAS UPDATED (/Users/mattyjones/GoogleDrive/Boise/Code/MorphCT/tests/output_EZ/donor_polymer/chromophores/input_orca/single/00017.en.tmp) ****
----------------
ORBITAL ENERGIES
----------------

  NO   OCC          E(Eh)            E(eV) 
   0   2.0000      -1.563751       -42.5518 
   1   2.0000      -1.409441       -38.3528 
   2   2.0000      -1.285524       -34.9809 
   3   2.0000      -1.175077       -31.9755 
   4   2.0000      -1.105177       -30.0734 
   5   2.0000      -1.059879       -28.8408 
   6   2.0000      -0.957951       -26.0672 
   7   2.0000      -0.882970       -24.0268 
   8   2.0000      -0.860413       -23.4130 
   9   2.0000      -0.832498       -22.6534 
  10   2.0000      -0.776192       -21.1213 
  11   2.0000      -0.722221       -19.6526 
  12   2.0000      -0.688302       -18.7296 
  13   2.0000      -0.667849       -18.1731 
  14   2.0000      -0.653328       -17.7779 
  15   2.0000      -0.616631       -16.7794 
  16   2.0000      -0.586832       -15.9685 
  17   2.0000      -0.577579       -15.7167 
  18   2.0000      -0.575387       -15.6571 
  19   2.0000      -0.547427       -14.8963 
  20   2.0000      -0.534669       -14.5491 
  21   2.0000      -0.526751       -14.3336 
  22   2.0000      -0.507243       -13.8028 
  23   2.0000      -0.492653       -13.4058 
  24   2.0000      -0.480109       -13.0644 
  25   2.0000      -0.473316       -12.8796 
  26   2.0000      -0.464081       -12.6283 
  27   2.0000      -0.460657       -12.5351 
  28   2.0000      -0.436150       -11.8682 
  29   2.0000      -0.339084        -9.2269 
  30   2.0000      -0.304812        -8.2944 
  31   0.0000      -0.003313        -0.0901 
  32   0.0000       0.054702         1.4885 
  33   0.0000       0.075118         2.0441 
  34   0.0000       0.091463         2.4888 
  35   0.0000       0.103530         2.8172 
  36   0.0000       0.111524         3.0347 
  37   0.0000       0.128680         3.5016 
  38   0.0000       0.143644         3.9088 
  39   0.0000       0.159311         4.3351 
  40   0.0000       0.168745         4.5918 
  41   0.0000       0.184428         5.0185 
  42   0.0000       0.203995         5.5510 
  43   0.0000       0.232120         6.3163 
  44   0.0000       0.233465         6.3529 
  45   0.0000       0.236783         6.4432 
  46   0.0000       0.240633         6.5480 
  47   0.0000       0.242335         6.5943 
  48   0.0000       0.243806         6.6343 
  49   0.0000       0.247036         6.7222 
  50   0.0000       0.257835         7.0160 
  51   0.0000       0.261585         7.1181 
  52   0.0000       0.263645         7.1741 
  53   0.0000       0.281273         7.6538 
  54   0.0000       0.302894         8.2422 
  55   0.0000       0.308815         8.4033 
  56   0.0000       0.327816         8.9203 
  57   0.0000       0.347375         9.4525 
  58   0.0000       0.417605        11.3636 
  59   0.0000       0.432077        11.7574 
-------
TIMINGS
-------

Total SCF time: 0 days 0 hours 0 min 0 sec 

Total time                  ....       0.058 sec
Sum of individual times     ....       0.050 sec  ( 85.9%)

Fock matrix formation       ....       0.037 sec  ( 63.9%)
Diagonalization             ....       0.005 sec  (  9.2%)
Density matrix formation    ....       0.001 sec  (  1.1%)
Population analysis         ....       0.000 sec  (  0.0%)
Initial guess               ....       0.001 sec  (  1.0%)
Orbital Transformation      ....       0.000 sec  (  0.0%)
Orbital Orthonormalization  ....       0.000 sec  (  0.0%)
DIIS solution               ....       0.005 sec  (  9.3%)
SOSCF solution              ....       0.001 sec  (  1.5%)

-------------------------   --------------------
FINAL SINGLE POINT ENERGY        -6.299283363950
-------------------------   --------------------


                            ***************************************
                            *     ORCA property calculations      *
                            ***************************************

                                    ---------------------
                                    Active property flags
                                    ---------------------
   (+) Dipole Moment


------------------------------------------------------------------------------
                       ORCA ELECTRIC PROPERTIES CALCULATION
------------------------------------------------------------------------------

Dipole Moment Calculation                       ... on
Quadrupole Moment Calculation                   ... off
Polarizability Calculation                      ... off
GBWName                                         ... /Users/mattyjones/GoogleDrive/Boise/Code/MorphCT/tests/output_EZ/donor_polymer/chromophores/input_orca/single/00017.gbw
Electron density file                           ... /Users/mattyjones/GoogleDrive/Boise/Code/MorphCT/tests/output_EZ/donor_polymer/chromophores/input_orca/single/00017.scfp.tmp

-------------
DIPOLE MOMENT
-------------
                                X             Y             Z
Electronic contribution:    124.15429      24.80388      23.63436
Nuclear contribution   :    -66.25704     -12.90579     -12.52788
                        -----------------------------------------
Total Dipole Moment    :     57.89725      11.89810      11.10649
                        -----------------------------------------
Magnitude (a.u.)       :     60.14158
Magnitude (Debye)      :    152.86776


Timings for individual modules:

Sum of individual times         ...        0.127 sec (=   0.002 min)
STO integral calculation        ...        0.041 sec (=   0.001 min)  32.2 %
SCF iterations                  ...        0.086 sec (=   0.001 min)  67.8 %
                             ****ORCA TERMINATED NORMALLY****
TOTAL RUN TIME: 0 days 0 hours 0 minutes 0 seconds 410 msec

