
                                 *****************
                                 * O   R   C   A *
                                 *****************

           --- An Ab Initio, DFT and Semiempirical electronic structure package ---

                  #######################################################
                  #                        -***-                        #
                  #  Department of molecular theory and spectroscopy    #
                  #              Directorship: Frank Neese              #
                  # Max Planck Institute for Chemical Energy Conversion #
                  #                  D-45470 Muelheim/Ruhr              #
                  #                       Germany                       #
                  #                                                     #
                  #                  All rights reserved                #
                  #                        -***-                        #
                  #######################################################


                         Program Version 3.0.3 - RELEASE   -


 With contributions from (in alphabetic order):
   Ute Becker             : Parallelization
   Dmytro Bykov           : SCF Hessian
   Dmitry Ganyushin       : Spin-Orbit,Spin-Spin,Magnetic field MRCI
   Andreas Hansen         : Spin unrestricted coupled pair/coupled cluster methods
   Dimitrios Liakos       : Extrapolation schemes; parallel MDCI
   Robert Izsak           : Overlap fitted RIJCOSX, COSX-SCS-MP3
   Christian Kollmar      : KDIIS, OOCD, Brueckner-CCSD(T), CCSD density
   Simone Kossmann        : Meta GGA functionals, TD-DFT gradient, OOMP2, MP2 Hessian
   Taras Petrenko         : DFT Hessian,TD-DFT gradient, ASA and ECA modules, normal mode analysis, Resonance Raman, ABS, FL, XAS/XES, NRVS
   Christoph Reimann      : Effective Core Potentials
   Michael Roemelt        : Restricted open shell CIS
   Christoph Riplinger    : Improved optimizer, TS searches, QM/MM, DLPNO-CCSD
   Barbara Sandhoefer     : DKH picture change effects
   Igor Schapiro          : Molecular dynamics
   Kantharuban Sivalingam : CASSCF convergence, NEVPT2
   Boris Wezisla          : Elementary symmetry handling
   Frank Wennmohs         : Technical directorship


 We gratefully acknowledge several colleagues who have allowed us to
 interface, adapt or use parts of their codes:
   Stefan Grimme, W. Hujo, H. Kruse, T. Risthaus : VdW corrections, initial TS optimization,
                                                   DFT functionals, gCP
   Ed Valeev                                     : LibInt (2-el integral package), F12 methods
   Garnet Chan, S. Sharma, R. Olivares           : DMRG
   Ulf Ekstrom                                   : XCFun DFT Library
   Mihaly Kallay                                 : mrcc  (arbitrary order and MRCC methods)
   Andreas Klamt, Michael Diedenhofen            : otool_cosmo (COSMO solvation model)
   Frank Weinhold                                : gennbo (NPA and NBO analysis)
   Christopher J. Cramer and Donald G. Truhlar   : smd solvation model


 Your calculation uses the libint2 library for the computation of 2-el integrals
 For citations please refer to: http://libint.valeyev.net

 This ORCA versions uses:
   CBLAS   interface :  Fast vector & matrix operations
   LAPACKE interface :  Fast linear algebra routines
   SCALAPACK package :  Parallel linear algebra routines


leaving
================================================================================
                                        WARNINGS
                       Please study these warnings very carefully!
================================================================================
Now building the actual basis set

WARNING: Direct SCF is incompatible with Method<>HF and Method<>DFT
  ===> : conventional SCF is chosen

WARNING: The NDO methods need Guess=HUECKEL or Guess=HCORE or Guess=MOREAD
  ===> : Guess is set to Hueckel

WARNING: The NDO methods need %rel::SOCType==1
  ===> : %rel::SOCType is set to 1

WARNING: The NDO methods cannot have frozencore=1
  ===> : %method FrozenCore=0 end


INFO   : the flag for use of LIBINT has been found!

================================================================================
                                       INPUT FILE
================================================================================
NAME = /Users/mattyjones/GoogleDrive/Boise/Code/MorphCT/tests/output_EZ/donor_polymer/chromophores/input_orca/single/00019.inp
|  1> # ================================================================
|  2> # Orca input file made by Matty Jones
|  3> # ================================================================
|  4> ! ZINDO/S 
|  5> ! NOPOP
|  6> ! NOMOPRINT
|  7> * xyz 0   1
|  8>  C  4.75187  1.26092  -1.67933
|  9>  C  3.63841  0.46614  -1.40288
| 10>  C  2.58336  1.15427  -0.72641
| 11>  C  2.86514  2.49920  -0.46739
| 12>  S  4.38349  2.76247  -1.08037
| 13>  H  3.58835  -0.63999  -1.68451
| 14>  C  1.32115  0.16642  -0.44242
| 15>  C  -0.34885  0.40644  -0.58088
| 16>  C  -1.23245  0.85688  0.77115
| 17>  H  -0.55404  1.50013  1.44862
| 18>  H  -2.13206  1.49245  0.42165
| 19>  H  -0.49529  1.23179  -1.37694
| 20>  H  -0.80178  -0.57815  -0.98166
| 21>  H  1.43663  -0.18367  0.67550
| 22>  H  1.47569  -0.80116  -1.09243
| 23>  C  -1.76912  -0.43239  1.62614
| 24>  C  -3.25721  -1.13862  1.21483
| 25>  C  -3.21321  -2.52255  0.25534
| 26>  H  -4.29647  -2.89170  0.07574
| 27>  H  -2.61318  -3.34634  0.80415
| 28>  H  -2.71122  -2.28201  -0.75758
| 29>  H  -3.87153  -0.34506  0.64681
| 30>  H  -3.79812  -1.41002  2.19616
| 31>  H  -0.97942  -1.27685  1.54877
| 32>  H  -1.85421  -0.11834  2.73798
| 33>  H  5.64477  0.96665  -2.16897
| 34>  H  2.23932  3.20308  0.01892
| 35> *
| 36> 
| 37>                          ****END OF INPUT****
================================================================================

                       ****************************
                       * Single Point Calculation *
                       ****************************

---------------------------------
CARTESIAN COORDINATES (ANGSTROEM)
---------------------------------
  C      4.751870    1.260920   -1.679330
  C      3.638410    0.466140   -1.402880
  C      2.583360    1.154270   -0.726410
  C      2.865140    2.499200   -0.467390
  S      4.383490    2.762470   -1.080370
  H      3.588350   -0.639990   -1.684510
  C      1.321150    0.166420   -0.442420
  C     -0.348850    0.406440   -0.580880
  C     -1.232450    0.856880    0.771150
  H     -0.554040    1.500130    1.448620
  H     -2.132060    1.492450    0.421650
  H     -0.495290    1.231790   -1.376940
  H     -0.801780   -0.578150   -0.981660
  H      1.436630   -0.183670    0.675500
  H      1.475690   -0.801160   -1.092430
  C     -1.769120   -0.432390    1.626140
  C     -3.257210   -1.138620    1.214830
  C     -3.213210   -2.522550    0.255340
  H     -4.296470   -2.891700    0.075740
  H     -2.613180   -3.346340    0.804150
  H     -2.711220   -2.282010   -0.757580
  H     -3.871530   -0.345060    0.646810
  H     -3.798120   -1.410020    2.196160
  H     -0.979420   -1.276850    1.548770
  H     -1.854210   -0.118340    2.737980
  H      5.644770    0.966650   -2.168970
  H      2.239320    3.203080    0.018920

----------------------------
CARTESIAN COORDINATES (A.U.)
----------------------------
  NO LB      ZA    FRAG    MASS        X           Y           Z
   0 C     4.0000    0    12.011          8.979732923996378          2.382793476783985         -3.173473788477975
   1 C     4.0000    0    12.011          6.875598462920421          0.880876940066052         -2.651058998755445
   2 C     4.0000    0    12.011          4.881842905326804          2.181254184601283         -1.372715960941736
   3 C     4.0000    0    12.011          5.414329935343135          4.722803553895992         -0.883239097733454
   4 S     6.0000    0    32.060          8.283595610782468          5.220311753173440         -2.041603423304503
   5 H     1.0000    0     1.008          6.780998772656324         -1.209405828448262         -3.183262569851688
   6 C     4.0000    0    12.011          2.496611681830062          0.314488223207175         -0.836052636169440
   7 C     4.0000    0    12.011         -0.659230961818429          0.768060289870954         -1.097704116672177
   8 C     4.0000    0    12.011         -2.328992973751247          1.619268529634442          1.457262308173373
   9 H     1.0000    0     1.008         -1.046983867237730          2.834834865279287          2.737495072121003
  10 H     1.0000    0     1.008         -4.029009501088144          2.820321768570772          0.796803024367896
  11 H     1.0000    0     1.008         -0.935962456869857          2.327745754502859         -2.602039502841528
  12 H     1.0000    0     1.008         -1.515144619655381         -1.092545164326572         -1.855068556625136
  13 H     1.0000    0     1.008          2.714837255775288         -0.347085999017316          1.276510003463805
  14 H     1.0000    0     1.008          2.788649958566252         -1.513972989452350         -2.064393520479593
  15 C     4.0000    0    12.011         -3.343152298042765         -0.817098683046210          3.072959255414704
  16 C     4.0000    0    12.011         -6.155234860669641         -2.151679970605416          2.295695999271554
  17 C     4.0000    0    12.011         -6.072086910777105         -4.766928659123053          0.482522671035452
  18 H     1.0000    0     1.008         -8.119151642608641         -5.464521061460084          0.143127857383196
  19 H     1.0000    0     1.008         -4.938194538640336         -6.323666150986042          1.519623270592775
  20 H     1.0000    0     1.008         -5.123463288809976         -4.312373934869636         -1.431618724536062
  21 H     1.0000    0     1.008         -7.316131419260143         -0.652068899770867          1.222293760681605
  22 H     1.0000    0     1.008         -7.177406623768984         -2.664551643351643          4.150140946272495
  23 H     1.0000    0     1.008         -1.850835570085152         -2.412896814097350          2.926751144433217
  24 H     1.0000    0     1.008         -3.503949094778124         -0.223630190688241          5.174032360153708
  25 H     1.0000    0     1.008         10.667069388974664          1.826703767354978         -4.098759292691177
  26 H     1.0000    0     1.008          4.231701526212538          6.052943985040483          0.035753618453790

--------------------------------
INTERNAL COORDINATES (ANGSTROEM)
--------------------------------
 C      0   0   0   0.000000     0.000     0.000
 C      1   0   0   1.395669     0.000     0.000
 C      2   1   0   1.429778   114.101     0.000
 C      3   2   1   1.398330   113.694     0.000
 S      1   2   3   1.658044   105.480     0.000
 H      2   1   3   1.142517   122.511   180.723
 C      3   2   1   1.627781   111.263   179.854
 C      7   3   2   1.692832   131.655   222.121
 C      8   7   3   1.676792   119.471   264.773
 H      9   8   7   1.154546   108.250    31.794
 H      9   8   7   1.155594   108.307   150.050
 H      8   7   3   1.156010   106.411    26.220
 H      8   7   3   1.155503   107.112   142.296
 H      7   3   2   1.177134   105.671    98.708
 H      7   3   2   1.175843   107.519   346.389
 C      9   8   7   1.637449   112.471   271.358
 C     16   9   8   1.697748   119.229   272.263
 C     17  16   9   1.684583   117.183    98.729
 H     18  17  16   1.158439   109.006   179.159
 H     18  17  16   1.157523   109.157    59.768
 H     18  17  16   1.155794   109.848   299.346
 H     17  16   9   1.153158   107.458   337.830
 H     17  16   9   1.152931   107.634   220.158
 H     16   9   8   1.158760   108.396    33.718
 H     16   9   8   1.158471   108.165   150.772
 H      1   2   3   1.060006   127.260   180.000
 H      4   3   2   1.059998   127.207   180.000

---------------------------
INTERNAL COORDINATES (A.U.)
---------------------------
 C      0   0   0   0.000000     0.000     0.000
 C      1   0   0   2.637433     0.000     0.000
 C      2   1   0   2.701889   114.101     0.000
 C      3   2   1   2.642462   113.694     0.000
 S      1   2   3   3.133249   105.480     0.000
 H      2   1   3   2.159044   122.511   180.723
 C      3   2   1   3.076061   111.263   179.854
 C      7   3   2   3.198989   131.655   222.121
 C      8   7   3   3.168677   119.471   264.773
 H      9   8   7   2.181776   108.250    31.794
 H      9   8   7   2.183756   108.307   150.050
 H      8   7   3   2.184542   106.411    26.220
 H      8   7   3   2.183585   107.112   142.296
 H      7   3   2   2.224460   105.671    98.708
 H      7   3   2   2.222021   107.519   346.389
 C      9   8   7   3.094330   112.471   271.358
 C     16   9   8   3.208279   119.229   272.263
 C     17  16   9   3.183400   117.183    98.729
 H     18  17  16   2.189132   109.006   179.159
 H     18  17  16   2.187401   109.157    59.768
 H     18  17  16   2.184135   109.848   299.346
 H     17  16   9   2.179153   107.458   337.830
 H     17  16   9   2.178724   107.634   220.158
 H     16   9   8   2.189739   108.396    33.718
 H     16   9   8   2.189194   108.165   150.772
 H      1   2   3   2.003121   127.260   180.000
 H      4   3   2   2.003105   127.207   180.000

----------------------------
SLATER BASIS SET DIM=  60
----------------------------
  0 C     2 shells
 l=0 nsto= 1
    2       1.625000000000        1.000000000000
 l=1 nsto= 1
    2       1.625000000000        1.000000000000
  1 C     2 shells
 l=0 nsto= 1
    2       1.625000000000        1.000000000000
 l=1 nsto= 1
    2       1.625000000000        1.000000000000
  2 C     2 shells
 l=0 nsto= 1
    2       1.625000000000        1.000000000000
 l=1 nsto= 1
    2       1.625000000000        1.000000000000
  3 C     2 shells
 l=0 nsto= 1
    2       1.625000000000        1.000000000000
 l=1 nsto= 1
    2       1.625000000000        1.000000000000
  4 S     2 shells
 l=0 nsto= 1
    3       1.925000000000        1.000000000000
 l=1 nsto= 1
    3       1.925000000000        1.000000000000
  5 H     1 shells
 l=0 nsto= 1
    1       1.200000000000        1.000000000000
  6 C     2 shells
 l=0 nsto= 1
    2       1.625000000000        1.000000000000
 l=1 nsto= 1
    2       1.625000000000        1.000000000000
  7 C     2 shells
 l=0 nsto= 1
    2       1.625000000000        1.000000000000
 l=1 nsto= 1
    2       1.625000000000        1.000000000000
  8 C     2 shells
 l=0 nsto= 1
    2       1.625000000000        1.000000000000
 l=1 nsto= 1
    2       1.625000000000        1.000000000000
  9 H     1 shells
 l=0 nsto= 1
    1       1.200000000000        1.000000000000
 10 H     1 shells
 l=0 nsto= 1
    1       1.200000000000        1.000000000000
 11 H     1 shells
 l=0 nsto= 1
    1       1.200000000000        1.000000000000
 12 H     1 shells
 l=0 nsto= 1
    1       1.200000000000        1.000000000000
 13 H     1 shells
 l=0 nsto= 1
    1       1.200000000000        1.000000000000
 14 H     1 shells
 l=0 nsto= 1
    1       1.200000000000        1.000000000000
 15 C     2 shells
 l=0 nsto= 1
    2       1.625000000000        1.000000000000
 l=1 nsto= 1
    2       1.625000000000        1.000000000000
 16 C     2 shells
 l=0 nsto= 1
    2       1.625000000000        1.000000000000
 l=1 nsto= 1
    2       1.625000000000        1.000000000000
 17 C     2 shells
 l=0 nsto= 1
    2       1.625000000000        1.000000000000
 l=1 nsto= 1
    2       1.625000000000        1.000000000000
 18 H     1 shells
 l=0 nsto= 1
    1       1.200000000000        1.000000000000
 19 H     1 shells
 l=0 nsto= 1
    1       1.200000000000        1.000000000000
 20 H     1 shells
 l=0 nsto= 1
    1       1.200000000000        1.000000000000
 21 H     1 shells
 l=0 nsto= 1
    1       1.200000000000        1.000000000000
 22 H     1 shells
 l=0 nsto= 1
    1       1.200000000000        1.000000000000
 23 H     1 shells
 l=0 nsto= 1
    1       1.200000000000        1.000000000000
 24 H     1 shells
 l=0 nsto= 1
    1       1.200000000000        1.000000000000
 25 H     1 shells
 l=0 nsto= 1
    1       1.200000000000        1.000000000000
 26 H     1 shells
 l=0 nsto= 1
    1       1.200000000000        1.000000000000
------------------------------------------------------------------------------
                           ORCA NDO INTEGRAL CALCULATION
------------------------------------------------------------------------------

--------------
NDO PARAMETERS
--------------

Gamma integral treatment              ... Mataga-Nishimoto
Nuclear repulsuion treatment          ... Direct (ZA*ZB/RAB)
Interaction factors:
s-s (sigma) =    1.0000
s-p (sigma) =    1.0000
s-d (sigma) =    1.0000
p-p (sigma) =    1.2670  p-p(pi) =    0.5850
p-d (sigma) =    1.0000  p-d(pi) =    1.0000
d-d (sigma) =    1.0000  d-d(pi) =    1.0000 d-d (delta) =    1.0000

fGamma parameter for Mataga-Nishimoto gamma integrals:    1.2000

--------------------------
Parameters for Element H :
--------------------------
 One-electron parameters (in eV)
  U(s)  =   -13.060000 Beta(s) =    12.000000 Neff(s) =     1.000000
 One-center electron repulsion parameters (in eV)
  G(s,s)=    12.850000
--------------------------
Parameters for Element C :
--------------------------
 One-electron parameters (in eV)
  U(s)  =   -50.870766 Beta(s) =    17.000000 Neff(s) =     2.000000
  U(p)  =   -41.599980 Beta(p) =    17.000000 Neff(p) =     2.000000 
 One-center electron repulsion parameters (in eV)
  G(s,s)=    11.110000
  G(s,p)=    11.110000 G(p,p)  =    11.110000
 Slater-Condon parameters (in eV)
 F2(p,p)=     4.5098 G1(s,p)=    6.8977
--------------------------
Parameters for Element S :
--------------------------
 One-electron parameters (in eV)
  U(s)  =   -69.509597 Beta(s) =    15.000000 Neff(s) =     2.000000
  U(p)  =   -60.725746 Beta(p) =    15.000000 Neff(p) =     4.000000 
 One-center electron repulsion parameters (in eV)
  G(s,s)=    10.090000
  G(s,p)=    10.090000 G(p,p)  =    10.090000
 Slater-Condon parameters (in eV)
 F2(p,p)=     4.5377 G1(s,p)=    3.0756

 Number of atoms                    ....   27
 Number of basis functions          ....   60

 Overlap integrals                  .... done
 One electron matrix                .... done
 Nuclear repulsion                  .... done
 Integral list                      .... done
 Electron-electron repulsion        .... done
-------------------------------------------------------------------------------
                                 ORCA SCF
-------------------------------------------------------------------------------

------------
SCF SETTINGS
------------
Hamiltonian:
 ZDO-Hamiltonian        Method          .... INDO


General Settings:
 Integral files         IntName         .... /Users/mattyjones/GoogleDrive/Boise/Code/MorphCT/tests/output_EZ/donor_polymer/chromophores/input_orca/single/00019
 Hartree-Fock type      HFTyp           .... RHF
 Total Charge           Charge          ....    0
 Multiplicity           Mult            ....    1
 Number of Electrons    NEL             ....   62
 Basis Dimension        Dim             ....   60
 Nuclear Repulsion      ENuc            ....    292.6305986476 Eh

Convergence Acceleration:
 DIIS                   CNVDIIS         .... on
   Start iteration      DIISMaxIt       ....    12
   Startup error        DIISStart       ....  0.200000
   # of expansion vecs  DIISMaxEq       ....     5
   Bias factor          DIISBfac        ....   1.050
   Max. coefficient     DIISMaxC        ....  10.000
 Newton-Raphson         CNVNR           .... off
 SOSCF                  CNVSOSCF        .... on
   Start iteration      SOSCFMaxIt      ....   150
   Startup grad/error   SOSCFStart      ....  0.003300
 Level Shifting         CNVShift        .... on
   Level shift para.    LevelShift      ....    0.2500
   Turn off err/grad.   ShiftErr        ....    0.0010
 Zerner damping         CNVZerner       .... off
 Static damping         CNVDamp         .... on
   Fraction old density DampFac         ....    0.7000
   Max. Damping (<1)    DampMax         ....    0.9800
   Min. Damping (>=0)   DampMin         ....    0.0000
   Turn off err/grad.   DampErr         ....    0.1000
 Fernandez-Rico         CNVRico         .... off

SCF Procedure:
 Maximum # iterations   MaxIter         ....   125
 SCF integral mode      SCFMode         .... Conventional
 Integral Buffer length BufferLength    .... 1048576
 Integral index format  IndFormat       ....     0
 Integral value format  ValFormat       ....     0
 Integral Storage       Thresh          ....  1.000e-08 Eh

Convergence Tolerance:
 Convergence Check Mode ConvCheckMode   .... Total+1el-Energy
 Energy Change          TolE            ....  1.000e-06 Eh
 1-El. energy change                    ....  1.000e-03 Eh
 Orbital Gradient       TolG            ....  5.000e-05
 Orbital Rotation angle TolX            ....  5.000e-05
 DIIS Error             TolErr          ....  1.000e-06


Diagonalization of the overlap matrix:
Smallest eigenvalue                        ... 1.697e-01
Time for diagonalization                   ...    0.001 sec
Threshold for overlap eigenvalues          ... 1.000e-08
Number of eigenvalues below threshold      ... 0
Time for construction of square roots      ...    0.000 sec
Total time needed                          ...    0.002 sec

-------------------------------
INITIAL GUESS: EXTENDED HUECKEL
-------------------------------
EHT matrix was read from disk
EHT matrix was diagonalized
Initial density was built
                      ------------------
                      INITIAL GUESS DONE
                      ------------------

 InCore treatment chosen:
   Memory dedicated               ...    1024 MB
   Memory needed                  ...      0 MB
   Number of tiny    integrals    ...       0
   Number of small   integrals    ...       0
   Number of regular integrals    ...    1896

--------------
SCF ITERATIONS
--------------
ITER       Energy         Delta-E        Max-DP      RMS-DP      [F,P]     Damp
  0     -7.1856458395   0.000000000000 0.04309872  0.00204197  0.0958720 0.7000
  1     -7.2065654314  -0.020919591858 0.04150886  0.00192414  0.0651613 0.7000
                               ***Turning on DIIS***
  2     -7.2220431330  -0.015477701642 0.10785939  0.00494065  0.0389653 0.0000
  3     -7.2633593641  -0.041316231050 0.01615903  0.00103033  0.0196600 0.0000
  4     -7.2550891921   0.008270171942 0.01342804  0.00070854  0.0076135 0.0000
  5     -7.2636637458  -0.008574553652 0.00939760  0.00047768  0.0044819 0.0000
  6     -7.2645555351  -0.000891789283 0.00695773  0.00033721  0.0025224 0.0000
                      *** Initiating the SOSCF procedure ***
                           *** Shutting down DIIS ***
                      *** Re-Reading the Fockian *** 
                      *** Removing any level shift *** 
ITER      Energy       Delta-E        Grad      Rot      Max-DP    RMS-DP
  7     -7.26264399   0.0019115469  0.002996  0.002996  0.004157  0.000189
  8     -7.26173352   0.0009104681  0.000799  0.002197  0.002066  0.000087
  9     -7.26174066  -0.0000071355  0.000350  0.002138  0.002309  0.000092
 10     -7.26174325  -0.0000025921  0.000029  0.000083  0.000141  0.000006
                 **** Energy Check signals convergence ****
              ***Rediagonalizing the Fockian in SOSCF/NRSCF***

               *****************************************************
               *                     SUCCESS                       *
               *           SCF CONVERGED AFTER  11 CYCLES          *
               *****************************************************


----------------
TOTAL SCF ENERGY
----------------

Total Energy       :           -7.26174327 Eh            -197.60208 eV

Components:
Nuclear Repulsion  :          292.63059865 Eh            7962.88341 eV
Electronic Energy  :         -299.89234192 Eh           -8160.48549 eV

One Electron Energy:         -554.58270459 Eh          -15090.96260 eV
Two Electron Energy:          254.69036267 Eh            6930.47711 eV


---------------
SCF CONVERGENCE
---------------

  Last Energy change         ...   -2.6038e-08  Tolerance :   1.0000e-06
  Last MAX-Density change    ...    5.5460e-05  Tolerance :   1.0000e-05
  Last RMS-Density change    ...    2.1571e-06  Tolerance :   1.0000e-06
  Last Orbital Gradient      ...    1.1647e-05  Tolerance :   5.0000e-05
  Last Orbital Rotation      ...    2.3174e-05  Tolerance :   5.0000e-05

             **** THE GBW FILE WAS UPDATED (/Users/mattyjones/GoogleDrive/Boise/Code/MorphCT/tests/output_EZ/donor_polymer/chromophores/input_orca/single/00019.gbw) ****
             **** DENSITY FILE WAS UPDATED (/Users/mattyjones/GoogleDrive/Boise/Code/MorphCT/tests/output_EZ/donor_polymer/chromophores/input_orca/single/00019.scfp.tmp) ****
             **** ENERGY FILE WAS UPDATED (/Users/mattyjones/GoogleDrive/Boise/Code/MorphCT/tests/output_EZ/donor_polymer/chromophores/input_orca/single/00019.en.tmp) ****
----------------
ORBITAL ENERGIES
----------------

  NO   OCC          E(Eh)            E(eV) 
   0   2.0000      -1.557478       -42.3811 
   1   2.0000      -1.403738       -38.1977 
   2   2.0000      -1.281421       -34.8692 
   3   2.0000      -1.179115       -32.0853 
   4   2.0000      -1.116614       -30.3846 
   5   2.0000      -1.064833       -28.9756 
   6   2.0000      -0.956747       -26.0344 
   7   2.0000      -0.891554       -24.2604 
   8   2.0000      -0.852029       -23.1849 
   9   2.0000      -0.834670       -22.7125 
  10   2.0000      -0.783599       -21.3228 
  11   2.0000      -0.724708       -19.7203 
  12   2.0000      -0.702702       -19.1215 
  13   2.0000      -0.671934       -18.2842 
  14   2.0000      -0.633052       -17.2262 
  15   2.0000      -0.617246       -16.7961 
  16   2.0000      -0.592192       -16.1144 
  17   2.0000      -0.576477       -15.6867 
  18   2.0000      -0.559606       -15.2277 
  19   2.0000      -0.555617       -15.1191 
  20   2.0000      -0.532315       -14.4850 
  21   2.0000      -0.527004       -14.3405 
  22   2.0000      -0.507552       -13.8112 
  23   2.0000      -0.489767       -13.3272 
  24   2.0000      -0.487526       -13.2663 
  25   2.0000      -0.479794       -13.0559 
  26   2.0000      -0.463726       -12.6186 
  27   2.0000      -0.460161       -12.5216 
  28   2.0000      -0.435518       -11.8511 
  29   2.0000      -0.356421        -9.6987 
  30   2.0000      -0.305873        -8.3232 
  31   0.0000       0.007239         0.1970 
  32   0.0000       0.065727         1.7885 
  33   0.0000       0.075265         2.0481 
  34   0.0000       0.083719         2.2781 
  35   0.0000       0.103823         2.8252 
  36   0.0000       0.108535         2.9534 
  37   0.0000       0.123129         3.3505 
  38   0.0000       0.141981         3.8635 
  39   0.0000       0.160400         4.3647 
  40   0.0000       0.166194         4.5224 
  41   0.0000       0.166772         4.5381 
  42   0.0000       0.203162         5.5283 
  43   0.0000       0.229783         6.2527 
  44   0.0000       0.234701         6.3865 
  45   0.0000       0.236380         6.4322 
  46   0.0000       0.238475         6.4892 
  47   0.0000       0.240916         6.5557 
  48   0.0000       0.244009         6.6398 
  49   0.0000       0.244245         6.6462 
  50   0.0000       0.248508         6.7622 
  51   0.0000       0.256598         6.9824 
  52   0.0000       0.266607         7.2547 
  53   0.0000       0.281118         7.6496 
  54   0.0000       0.303512         8.2590 
  55   0.0000       0.310072         8.4375 
  56   0.0000       0.338696         9.2164 
  57   0.0000       0.350748         9.5443 
  58   0.0000       0.420732        11.4487 
  59   0.0000       0.430371        11.7110 
-------
TIMINGS
-------

Total SCF time: 0 days 0 hours 0 min 0 sec 

Total time                  ....       0.086 sec
Sum of individual times     ....       0.074 sec  ( 85.6%)

Fock matrix formation       ....       0.057 sec  ( 66.6%)
Diagonalization             ....       0.005 sec  (  5.9%)
Density matrix formation    ....       0.001 sec  (  1.0%)
Population analysis         ....       0.000 sec  (  0.0%)
Initial guess               ....       0.001 sec  (  0.9%)
Orbital Transformation      ....       0.000 sec  (  0.0%)
Orbital Orthonormalization  ....       0.000 sec  (  0.0%)
DIIS solution               ....       0.007 sec  (  8.1%)
SOSCF solution              ....       0.003 sec  (  3.1%)

-------------------------   --------------------
FINAL SINGLE POINT ENERGY        -7.261743273708
-------------------------   --------------------


                            ***************************************
                            *     ORCA property calculations      *
                            ***************************************

                                    ---------------------
                                    Active property flags
                                    ---------------------
   (+) Dipole Moment


------------------------------------------------------------------------------
                       ORCA ELECTRIC PROPERTIES CALCULATION
------------------------------------------------------------------------------

Dipole Moment Calculation                       ... on
Quadrupole Moment Calculation                   ... off
Polarizability Calculation                      ... off
GBWName                                         ... /Users/mattyjones/GoogleDrive/Boise/Code/MorphCT/tests/output_EZ/donor_polymer/chromophores/input_orca/single/00019.gbw
Electron density file                           ... /Users/mattyjones/GoogleDrive/Boise/Code/MorphCT/tests/output_EZ/donor_polymer/chromophores/input_orca/single/00019.scfp.tmp

-------------
DIPOLE MOMENT
-------------
                                X             Y             Z
Electronic contribution:    118.54283      72.89385     -29.52087
Nuclear contribution   :    -63.96976     -39.02375      15.99704
                        -----------------------------------------
Total Dipole Moment    :     54.57306      33.87009     -13.52383
                        -----------------------------------------
Magnitude (a.u.)       :     65.63761
Magnitude (Debye)      :    166.83755


Timings for individual modules:

Sum of individual times         ...        0.162 sec (=   0.003 min)
STO integral calculation        ...        0.038 sec (=   0.001 min)  23.7 %
SCF iterations                  ...        0.124 sec (=   0.002 min)  76.3 %
                             ****ORCA TERMINATED NORMALLY****
TOTAL RUN TIME: 0 days 0 hours 0 minutes 0 seconds 448 msec

