
                                 *****************
                                 * O   R   C   A *
                                 *****************

           --- An Ab Initio, DFT and Semiempirical electronic structure package ---

                  #######################################################
                  #                        -***-                        #
                  #  Department of molecular theory and spectroscopy    #
                  #              Directorship: Frank Neese              #
                  # Max Planck Institute for Chemical Energy Conversion #
                  #                  D-45470 Muelheim/Ruhr              #
                  #                       Germany                       #
                  #                                                     #
                  #                  All rights reserved                #
                  #                        -***-                        #
                  #######################################################


                         Program Version 3.0.3 - RELEASE   -


 With contributions from (in alphabetic order):
   Ute Becker             : Parallelization
   Dmytro Bykov           : SCF Hessian
   Dmitry Ganyushin       : Spin-Orbit,Spin-Spin,Magnetic field MRCI
   Andreas Hansen         : Spin unrestricted coupled pair/coupled cluster methods
   Dimitrios Liakos       : Extrapolation schemes; parallel MDCI
   Robert Izsak           : Overlap fitted RIJCOSX, COSX-SCS-MP3
   Christian Kollmar      : KDIIS, OOCD, Brueckner-CCSD(T), CCSD density
   Simone Kossmann        : Meta GGA functionals, TD-DFT gradient, OOMP2, MP2 Hessian
   Taras Petrenko         : DFT Hessian,TD-DFT gradient, ASA and ECA modules, normal mode analysis, Resonance Raman, ABS, FL, XAS/XES, NRVS
   Christoph Reimann      : Effective Core Potentials
   Michael Roemelt        : Restricted open shell CIS
   Christoph Riplinger    : Improved optimizer, TS searches, QM/MM, DLPNO-CCSD
   Barbara Sandhoefer     : DKH picture change effects
   Igor Schapiro          : Molecular dynamics
   Kantharuban Sivalingam : CASSCF convergence, NEVPT2
   Boris Wezisla          : Elementary symmetry handling
   Frank Wennmohs         : Technical directorship


 We gratefully acknowledge several colleagues who have allowed us to
 interface, adapt or use parts of their codes:
   Stefan Grimme, W. Hujo, H. Kruse, T. Risthaus : VdW corrections, initial TS optimization,
                                                   DFT functionals, gCP
   Ed Valeev                                     : LibInt (2-el integral package), F12 methods
   Garnet Chan, S. Sharma, R. Olivares           : DMRG
   Ulf Ekstrom                                   : XCFun DFT Library
   Mihaly Kallay                                 : mrcc  (arbitrary order and MRCC methods)
   Andreas Klamt, Michael Diedenhofen            : otool_cosmo (COSMO solvation model)
   Frank Weinhold                                : gennbo (NPA and NBO analysis)
   Christopher J. Cramer and Donald G. Truhlar   : smd solvation model


 Your calculation uses the libint2 library for the computation of 2-el integrals
 For citations please refer to: http://libint.valeyev.net

 This ORCA versions uses:
   CBLAS   interface :  Fast vector & matrix operations
   LAPACKE interface :  Fast linear algebra routines
   SCALAPACK package :  Parallel linear algebra routines


leaving
================================================================================
                                        WARNINGS
                       Please study these warnings very carefully!
================================================================================
Now building the actual basis set

WARNING: Direct SCF is incompatible with Method<>HF and Method<>DFT
  ===> : conventional SCF is chosen

WARNING: The NDO methods need Guess=HUECKEL or Guess=HCORE or Guess=MOREAD
  ===> : Guess is set to Hueckel

WARNING: The NDO methods need %rel::SOCType==1
  ===> : %rel::SOCType is set to 1

WARNING: The NDO methods cannot have frozencore=1
  ===> : %method FrozenCore=0 end


INFO   : the flag for use of LIBINT has been found!

================================================================================
                                       INPUT FILE
================================================================================
NAME = /Users/mattyjones/GoogleDrive/Boise/Code/MorphCT/tests/output_EZ/donor_polymer/chromophores/input_orca/single/00015.inp
|  1> # ================================================================
|  2> # Orca input file made by Matty Jones
|  3> # ================================================================
|  4> ! ZINDO/S 
|  5> ! NOPOP
|  6> ! NOMOPRINT
|  7> * xyz 0   1
|  8>  C  1.44235  3.69069  -1.60407
|  9>  C  1.44267  2.55472  -0.79322
| 10>  C  1.52120  2.83641  0.60634
| 11>  C  1.58321  4.20169  0.90210
| 12>  S  1.53824  4.97756  -0.56297
| 13>  H  1.79568  1.55398  -1.23585
| 14>  C  1.48757  1.46650  1.48009
| 15>  C  0.13512  0.55463  0.81242
| 16>  C  -0.62145  -0.97844  0.97124
| 17>  H  -1.75362  -0.79696  1.09144
| 18>  H  -0.20419  -1.47227  1.92364
| 19>  H  0.34688  0.51723  -0.31939
| 20>  H  -0.74017  1.28878  1.00800
| 21>  H  1.29387  1.67519  2.59566
| 22>  H  2.44735  0.84378  1.33848
| 23>  C  -0.36213  -1.95602  -0.31861
| 24>  C  -1.14104  -3.46501  -0.33934
| 25>  C  -2.64076  -3.55490  -1.10866
| 26>  H  -3.46929  -3.70241  -0.31443
| 27>  H  -2.64072  -4.45739  -1.83489
| 28>  H  -2.83867  -2.58237  -1.70177
| 29>  H  -1.28940  -3.79207  0.75585
| 30>  H  -0.43617  -4.20832  -0.86922
| 31>  H  0.77234  -2.16487  -0.40590
| 32>  H  -0.70625  -1.40135  -1.27640
| 33>  H  1.39153  3.72377  -2.66233
| 34>  H  1.64585  4.64742  1.86179
| 35> *
| 36> 
| 37>                          ****END OF INPUT****
================================================================================

                       ****************************
                       * Single Point Calculation *
                       ****************************

---------------------------------
CARTESIAN COORDINATES (ANGSTROEM)
---------------------------------
  C      1.442350    3.690690   -1.604070
  C      1.442670    2.554720   -0.793220
  C      1.521200    2.836410    0.606340
  C      1.583210    4.201690    0.902100
  S      1.538240    4.977560   -0.562970
  H      1.795680    1.553980   -1.235850
  C      1.487570    1.466500    1.480090
  C      0.135120    0.554630    0.812420
  C     -0.621450   -0.978440    0.971240
  H     -1.753620   -0.796960    1.091440
  H     -0.204190   -1.472270    1.923640
  H      0.346880    0.517230   -0.319390
  H     -0.740170    1.288780    1.008000
  H      1.293870    1.675190    2.595660
  H      2.447350    0.843780    1.338480
  C     -0.362130   -1.956020   -0.318610
  C     -1.141040   -3.465010   -0.339340
  C     -2.640760   -3.554900   -1.108660
  H     -3.469290   -3.702410   -0.314430
  H     -2.640720   -4.457390   -1.834890
  H     -2.838670   -2.582370   -1.701770
  H     -1.289400   -3.792070    0.755850
  H     -0.436170   -4.208320   -0.869220
  H      0.772340   -2.164870   -0.405900
  H     -0.706250   -1.401350   -1.276400
  H      1.391530    3.723770   -2.662330
  H      1.645850    4.647420    1.861790

----------------------------
CARTESIAN COORDINATES (A.U.)
----------------------------
  NO LB      ZA    FRAG    MASS        X           Y           Z
   0 C     4.0000    0    12.011          2.725646489261317          6.974393345201825         -3.031252999639062
   1 C     4.0000    0    12.011          2.726251201624172          4.827721148851301         -1.498968563949015
   2 C     4.0000    0    12.011          2.874651394921008          5.360038103515577          1.145816544041812
   3 C     4.0000    0    12.011          2.991833312485465          7.940043399635584          1.704721945410361
   4 S     6.0000    0    32.060          2.906852328243026          9.406225215161067         -1.063859121613647
   5 H     1.0000    0     1.008          3.393343424159713          2.936596617590947         -2.335418042606578
   6 C     4.0000    0    12.011          2.811099905037236          2.771283375395516          2.796964753555505
   7 C     4.0000    0    12.011          0.255339795215439          1.048098805656744          1.535251305720303
   8 C     4.0000    0    12.011         -1.174370305925362         -1.848983638473909          1.835377610309676
   9 H     1.0000    0     1.008         -3.313861542966985         -1.506036139689881          2.062522691607011
  10 H     1.0000    0     1.008         -0.385863179285380         -2.782187095188241          3.635152780256277
  11 H     1.0000    0     1.008          0.655508201334604          0.977423048248089         -0.603559629913109
  12 H     1.0000    0     1.008         -1.398718592544493          2.435441246875031          1.904843942992622
  13 H     1.0000    0     1.008          2.445059952896690          3.165650322283541          4.905086536774037
  14 H     1.0000    0     1.008          4.624821253852176          1.594513117280074          2.529360635730917
  15 C     4.0000    0    12.011         -0.684326524876903         -3.696342112472647         -0.602085643528650
  16 C     4.0000    0    12.011         -2.156253107849505         -6.547919951298476         -0.641259666284837
  17 C     4.0000    0    12.011         -4.990313185413885         -6.717787433476658         -2.095063775633135
  18 H     1.0000    0     1.008         -6.556007979151659         -6.996540935491382         -0.594186588288859
  19 H     1.0000    0     1.008         -4.990237596368527         -8.423246372079248         -3.467439585870765
  20 H     1.0000    0     1.008         -5.364308884578239         -4.879972076454223         -3.215879242923168
  21 H     1.0000    0     1.008         -2.436612877078062         -7.165973780658761          1.428349498324378
  22 H     1.0000    0     1.008         -0.824241847832432         -7.952572283903481         -1.642587750127030
  23 H     1.0000    0     1.008          1.459511082272740         -4.091011415542100         -0.767039837758636
  24 H     1.0000    0     1.008         -1.334619082081884         -2.648167717770546         -2.412046437337086
  25 H     1.0000    0     1.008          2.629610607135439          7.036905485711939         -5.031074578122566
  26 H     1.0000    0     1.008          3.110205757514292          8.782351029308304          3.518273218873247

--------------------------------
INTERNAL COORDINATES (ANGSTROEM)
--------------------------------
 C      0   0   0   0.000000     0.000     0.000
 C      1   0   0   1.395674     0.000     0.000
 C      2   1   0   1.429785   114.101     0.000
 C      3   2   1   1.398324   113.693     0.000
 S      1   2   3   1.658047   105.480     0.000
 H      2   1   3   1.149790   119.001   203.987
 C      3   2   1   1.625184   111.042   178.910
 C      7   3   2   1.762501   104.378   311.923
 C      8   7   3   1.716952   139.912   175.103
 H      9   8   7   1.152906   107.567   130.867
 H      9   8   7   1.151104   107.449    12.813
 H      8   7   3   1.152057   104.354    52.892
 H      8   7   3   1.159034   100.828   299.896
 H      7   3   2   1.151333   111.816   193.792
 H      7   3   2   1.152827   111.842    68.712
 C      9   8   7   1.639092   112.957   251.630
 C     16   9   8   1.698288   117.838   184.042
 C     17  16   9   1.687926   117.412    92.546
 H     18  17  16   1.157161   109.277   250.385
 H     18  17  16   1.158403   109.099   130.901
 H     18  17  16   1.156184   109.944    10.812
 H     17  16   9   1.152571   107.432   331.125
 H     17  16   9   1.153310   107.335   213.548
 H     16   9   8   1.156832   108.796    62.420
 H     16   9   8   1.159068   108.535   304.692
 H      1   2   3   1.059996   127.260   180.000
 H      4   3   2   1.060002   127.206   180.000

---------------------------
INTERNAL COORDINATES (A.U.)
---------------------------
 C      0   0   0   0.000000     0.000     0.000
 C      1   0   0   2.637441     0.000     0.000
 C      2   1   0   2.701902   114.101     0.000
 C      3   2   1   2.642449   113.693     0.000
 S      1   2   3   3.133254   105.480     0.000
 H      2   1   3   2.172789   119.001   203.987
 C      3   2   1   3.071153   111.042   178.910
 C      7   3   2   3.330645   104.378   311.923
 C      8   7   3   3.244570   139.912   175.103
 H      9   8   7   2.178676   107.567   130.867
 H      9   8   7   2.175271   107.449    12.813
 H      8   7   3   2.177072   104.354    52.892
 H      8   7   3   2.190257   100.828   299.896
 H      7   3   2   2.175704   111.816   193.792
 H      7   3   2   2.178528   111.842    68.712
 C      9   8   7   3.097435   112.957   251.630
 C     16   9   8   3.209299   117.838   184.042
 C     17  16   9   3.189718   117.412    92.546
 H     18  17  16   2.186718   109.277   250.385
 H     18  17  16   2.189065   109.099   130.901
 H     18  17  16   2.184872   109.944    10.812
 H     17  16   9   2.178044   107.432   331.125
 H     17  16   9   2.179440   107.335   213.548
 H     16   9   8   2.186095   108.796    62.420
 H     16   9   8   2.190321   108.535   304.692
 H      1   2   3   2.003102   127.260   180.000
 H      4   3   2   2.003113   127.206   180.000

----------------------------
SLATER BASIS SET DIM=  60
----------------------------
  0 C     2 shells
 l=0 nsto= 1
    2       1.625000000000        1.000000000000
 l=1 nsto= 1
    2       1.625000000000        1.000000000000
  1 C     2 shells
 l=0 nsto= 1
    2       1.625000000000        1.000000000000
 l=1 nsto= 1
    2       1.625000000000        1.000000000000
  2 C     2 shells
 l=0 nsto= 1
    2       1.625000000000        1.000000000000
 l=1 nsto= 1
    2       1.625000000000        1.000000000000
  3 C     2 shells
 l=0 nsto= 1
    2       1.625000000000        1.000000000000
 l=1 nsto= 1
    2       1.625000000000        1.000000000000
  4 S     2 shells
 l=0 nsto= 1
    3       1.925000000000        1.000000000000
 l=1 nsto= 1
    3       1.925000000000        1.000000000000
  5 H     1 shells
 l=0 nsto= 1
    1       1.200000000000        1.000000000000
  6 C     2 shells
 l=0 nsto= 1
    2       1.625000000000        1.000000000000
 l=1 nsto= 1
    2       1.625000000000        1.000000000000
  7 C     2 shells
 l=0 nsto= 1
    2       1.625000000000        1.000000000000
 l=1 nsto= 1
    2       1.625000000000        1.000000000000
  8 C     2 shells
 l=0 nsto= 1
    2       1.625000000000        1.000000000000
 l=1 nsto= 1
    2       1.625000000000        1.000000000000
  9 H     1 shells
 l=0 nsto= 1
    1       1.200000000000        1.000000000000
 10 H     1 shells
 l=0 nsto= 1
    1       1.200000000000        1.000000000000
 11 H     1 shells
 l=0 nsto= 1
    1       1.200000000000        1.000000000000
 12 H     1 shells
 l=0 nsto= 1
    1       1.200000000000        1.000000000000
 13 H     1 shells
 l=0 nsto= 1
    1       1.200000000000        1.000000000000
 14 H     1 shells
 l=0 nsto= 1
    1       1.200000000000        1.000000000000
 15 C     2 shells
 l=0 nsto= 1
    2       1.625000000000        1.000000000000
 l=1 nsto= 1
    2       1.625000000000        1.000000000000
 16 C     2 shells
 l=0 nsto= 1
    2       1.625000000000        1.000000000000
 l=1 nsto= 1
    2       1.625000000000        1.000000000000
 17 C     2 shells
 l=0 nsto= 1
    2       1.625000000000        1.000000000000
 l=1 nsto= 1
    2       1.625000000000        1.000000000000
 18 H     1 shells
 l=0 nsto= 1
    1       1.200000000000        1.000000000000
 19 H     1 shells
 l=0 nsto= 1
    1       1.200000000000        1.000000000000
 20 H     1 shells
 l=0 nsto= 1
    1       1.200000000000        1.000000000000
 21 H     1 shells
 l=0 nsto= 1
    1       1.200000000000        1.000000000000
 22 H     1 shells
 l=0 nsto= 1
    1       1.200000000000        1.000000000000
 23 H     1 shells
 l=0 nsto= 1
    1       1.200000000000        1.000000000000
 24 H     1 shells
 l=0 nsto= 1
    1       1.200000000000        1.000000000000
 25 H     1 shells
 l=0 nsto= 1
    1       1.200000000000        1.000000000000
 26 H     1 shells
 l=0 nsto= 1
    1       1.200000000000        1.000000000000
------------------------------------------------------------------------------
                           ORCA NDO INTEGRAL CALCULATION
------------------------------------------------------------------------------

--------------
NDO PARAMETERS
--------------

Gamma integral treatment              ... Mataga-Nishimoto
Nuclear repulsuion treatment          ... Direct (ZA*ZB/RAB)
Interaction factors:
s-s (sigma) =    1.0000
s-p (sigma) =    1.0000
s-d (sigma) =    1.0000
p-p (sigma) =    1.2670  p-p(pi) =    0.5850
p-d (sigma) =    1.0000  p-d(pi) =    1.0000
d-d (sigma) =    1.0000  d-d(pi) =    1.0000 d-d (delta) =    1.0000

fGamma parameter for Mataga-Nishimoto gamma integrals:    1.2000

--------------------------
Parameters for Element H :
--------------------------
 One-electron parameters (in eV)
  U(s)  =   -13.060000 Beta(s) =    12.000000 Neff(s) =     1.000000
 One-center electron repulsion parameters (in eV)
  G(s,s)=    12.850000
--------------------------
Parameters for Element C :
--------------------------
 One-electron parameters (in eV)
  U(s)  =   -50.870766 Beta(s) =    17.000000 Neff(s) =     2.000000
  U(p)  =   -41.599980 Beta(p) =    17.000000 Neff(p) =     2.000000 
 One-center electron repulsion parameters (in eV)
  G(s,s)=    11.110000
  G(s,p)=    11.110000 G(p,p)  =    11.110000
 Slater-Condon parameters (in eV)
 F2(p,p)=     4.5098 G1(s,p)=    6.8977
--------------------------
Parameters for Element S :
--------------------------
 One-electron parameters (in eV)
  U(s)  =   -69.509597 Beta(s) =    15.000000 Neff(s) =     2.000000
  U(p)  =   -60.725746 Beta(p) =    15.000000 Neff(p) =     4.000000 
 One-center electron repulsion parameters (in eV)
  G(s,s)=    10.090000
  G(s,p)=    10.090000 G(p,p)  =    10.090000
 Slater-Condon parameters (in eV)
 F2(p,p)=     4.5377 G1(s,p)=    3.0756

 Number of atoms                    ....   27
 Number of basis functions          ....   60

 Overlap integrals                  .... done
 One electron matrix                .... done
 Nuclear repulsion                  .... done
 Integral list                      .... done
 Electron-electron repulsion        .... done
-------------------------------------------------------------------------------
                                 ORCA SCF
-------------------------------------------------------------------------------

------------
SCF SETTINGS
------------
Hamiltonian:
 ZDO-Hamiltonian        Method          .... INDO


General Settings:
 Integral files         IntName         .... /Users/mattyjones/GoogleDrive/Boise/Code/MorphCT/tests/output_EZ/donor_polymer/chromophores/input_orca/single/00015
 Hartree-Fock type      HFTyp           .... RHF
 Total Charge           Charge          ....    0
 Multiplicity           Mult            ....    1
 Number of Electrons    NEL             ....   62
 Basis Dimension        Dim             ....   60
 Nuclear Repulsion      ENuc            ....    292.3665806681 Eh

Convergence Acceleration:
 DIIS                   CNVDIIS         .... on
   Start iteration      DIISMaxIt       ....    12
   Startup error        DIISStart       ....  0.200000
   # of expansion vecs  DIISMaxEq       ....     5
   Bias factor          DIISBfac        ....   1.050
   Max. coefficient     DIISMaxC        ....  10.000
 Newton-Raphson         CNVNR           .... off
 SOSCF                  CNVSOSCF        .... on
   Start iteration      SOSCFMaxIt      ....   150
   Startup grad/error   SOSCFStart      ....  0.003300
 Level Shifting         CNVShift        .... on
   Level shift para.    LevelShift      ....    0.2500
   Turn off err/grad.   ShiftErr        ....    0.0010
 Zerner damping         CNVZerner       .... off
 Static damping         CNVDamp         .... on
   Fraction old density DampFac         ....    0.7000
   Max. Damping (<1)    DampMax         ....    0.9800
   Min. Damping (>=0)   DampMin         ....    0.0000
   Turn off err/grad.   DampErr         ....    0.1000
 Fernandez-Rico         CNVRico         .... off

SCF Procedure:
 Maximum # iterations   MaxIter         ....   125
 SCF integral mode      SCFMode         .... Conventional
 Integral Buffer length BufferLength    .... 1048576
 Integral index format  IndFormat       ....     0
 Integral value format  ValFormat       ....     0
 Integral Storage       Thresh          ....  1.000e-08 Eh

Convergence Tolerance:
 Convergence Check Mode ConvCheckMode   .... Total+1el-Energy
 Energy Change          TolE            ....  1.000e-06 Eh
 1-El. energy change                    ....  1.000e-03 Eh
 Orbital Gradient       TolG            ....  5.000e-05
 Orbital Rotation angle TolX            ....  5.000e-05
 DIIS Error             TolErr          ....  1.000e-06


Diagonalization of the overlap matrix:
Smallest eigenvalue                        ... 1.693e-01
Time for diagonalization                   ...    0.001 sec
Threshold for overlap eigenvalues          ... 1.000e-08
Number of eigenvalues below threshold      ... 0
Time for construction of square roots      ...    0.000 sec
Total time needed                          ...    0.002 sec

-------------------------------
INITIAL GUESS: EXTENDED HUECKEL
-------------------------------
EHT matrix was read from disk
EHT matrix was diagonalized
Initial density was built
                      ------------------
                      INITIAL GUESS DONE
                      ------------------

 InCore treatment chosen:
   Memory dedicated               ...    1024 MB
   Memory needed                  ...      0 MB
   Number of tiny    integrals    ...       0
   Number of small   integrals    ...       0
   Number of regular integrals    ...    1896

--------------
SCF ITERATIONS
--------------
ITER       Energy         Delta-E        Max-DP      RMS-DP      [F,P]     Damp
  0     -7.1357664743   0.000000000000 0.04585852  0.00203619  0.0931426 0.7000
  1     -7.1568039891  -0.021037514854 0.04551491  0.00192604  0.0714798 0.7000
                               ***Turning on DIIS***
  2     -7.1723869419  -0.015582952736 0.12238162  0.00497099  0.0520494 0.0000
  3     -7.2121939673  -0.039807025448 0.02474421  0.00107232  0.0172743 0.0000
  4     -7.2051906353   0.007003332053 0.01722129  0.00073778  0.0092279 0.0000
  5     -7.2142432142  -0.009052578918 0.01210198  0.00049744  0.0055156 0.0000
  6     -7.2156262639  -0.001383049679 0.00861785  0.00035380  0.0032085 0.0000
                      *** Initiating the SOSCF procedure ***
                           *** Shutting down DIIS ***
                      *** Re-Reading the Fockian *** 
                      *** Removing any level shift *** 
ITER      Energy       Delta-E        Grad      Rot      Max-DP    RMS-DP
  7     -7.21365906   0.0019672084  0.003048  0.003048  0.005269  0.000202
  8     -7.21248262   0.0011764339  0.000852  0.002405  0.002657  0.000095
  9     -7.21249086  -0.0000082403  0.000374  0.002391  0.003074  0.000104
 10     -7.21249395  -0.0000030887  0.000041  0.000110  0.000235  0.000009
                 **** Energy Check signals convergence ****
              ***Rediagonalizing the Fockian in SOSCF/NRSCF***

               *****************************************************
               *                     SUCCESS                       *
               *           SCF CONVERGED AFTER  11 CYCLES          *
               *****************************************************


----------------
TOTAL SCF ENERGY
----------------

Total Energy       :           -7.21249399 Eh            -196.26194 eV

Components:
Nuclear Repulsion  :          292.36658067 Eh            7955.69912 eV
Electronic Energy  :         -299.57907466 Eh           -8151.96106 eV

One Electron Energy:         -554.05290336 Eh          -15076.54598 eV
Two Electron Energy:          254.47382870 Eh            6924.58492 eV


---------------
SCF CONVERGENCE
---------------

  Last Energy change         ...   -4.4293e-08  Tolerance :   1.0000e-06
  Last MAX-Density change    ...    1.0383e-04  Tolerance :   1.0000e-05
  Last RMS-Density change    ...    3.2089e-06  Tolerance :   1.0000e-06
  Last Orbital Gradient      ...    1.7034e-05  Tolerance :   5.0000e-05
  Last Orbital Rotation      ...    4.0836e-05  Tolerance :   5.0000e-05

             **** THE GBW FILE WAS UPDATED (/Users/mattyjones/GoogleDrive/Boise/Code/MorphCT/tests/output_EZ/donor_polymer/chromophores/input_orca/single/00015.gbw) ****
             **** DENSITY FILE WAS UPDATED (/Users/mattyjones/GoogleDrive/Boise/Code/MorphCT/tests/output_EZ/donor_polymer/chromophores/input_orca/single/00015.scfp.tmp) ****
             **** ENERGY FILE WAS UPDATED (/Users/mattyjones/GoogleDrive/Boise/Code/MorphCT/tests/output_EZ/donor_polymer/chromophores/input_orca/single/00015.en.tmp) ****
----------------
ORBITAL ENERGIES
----------------

  NO   OCC          E(Eh)            E(eV) 
   0   2.0000      -1.565660       -42.6038 
   1   2.0000      -1.388876       -37.7932 
   2   2.0000      -1.290049       -35.1040 
   3   2.0000      -1.189664       -32.3724 
   4   2.0000      -1.121202       -30.5095 
   5   2.0000      -1.028555       -27.9884 
   6   2.0000      -0.947410       -25.7803 
   7   2.0000      -0.887552       -24.1515 
   8   2.0000      -0.867389       -23.6029 
   9   2.0000      -0.837979       -22.8026 
  10   2.0000      -0.774140       -21.0654 
  11   2.0000      -0.728382       -19.8203 
  12   2.0000      -0.696788       -18.9606 
  13   2.0000      -0.664994       -18.0954 
  14   2.0000      -0.660178       -17.9644 
  15   2.0000      -0.614314       -16.7163 
  16   2.0000      -0.584791       -15.9130 
  17   2.0000      -0.577399       -15.7118 
  18   2.0000      -0.572364       -15.5748 
  19   2.0000      -0.559191       -15.2164 
  20   2.0000      -0.527304       -14.3487 
  21   2.0000      -0.514706       -14.0059 
  22   2.0000      -0.495562       -13.4849 
  23   2.0000      -0.492084       -13.3903 
  24   2.0000      -0.484590       -13.1864 
  25   2.0000      -0.479753       -13.0548 
  26   2.0000      -0.467936       -12.7332 
  27   2.0000      -0.450582       -12.2610 
  28   2.0000      -0.430513       -11.7148 
  29   2.0000      -0.347527        -9.4567 
  30   2.0000      -0.305219        -8.3054 
  31   0.0000       0.006793         0.1848 
  32   0.0000       0.057813         1.5732 
  33   0.0000       0.066942         1.8216 
  34   0.0000       0.088095         2.3972 
  35   0.0000       0.103987         2.8296 
  36   0.0000       0.108459         2.9513 
  37   0.0000       0.123791         3.3685 
  38   0.0000       0.143397         3.9020 
  39   0.0000       0.156525         4.2593 
  40   0.0000       0.168271         4.5789 
  41   0.0000       0.174805         4.7567 
  42   0.0000       0.200358         5.4520 
  43   0.0000       0.227801         6.1988 
  44   0.0000       0.234546         6.3823 
  45   0.0000       0.237882         6.4731 
  46   0.0000       0.239440         6.5155 
  47   0.0000       0.240669         6.5489 
  48   0.0000       0.242535         6.5997 
  49   0.0000       0.244412         6.6508 
  50   0.0000       0.248079         6.7506 
  51   0.0000       0.255137         6.9426 
  52   0.0000       0.267207         7.2711 
  53   0.0000       0.284816         7.7502 
  54   0.0000       0.309594         8.4245 
  55   0.0000       0.311978         8.4894 
  56   0.0000       0.332924         9.0593 
  57   0.0000       0.352037         9.5794 
  58   0.0000       0.421472        11.4688 
  59   0.0000       0.422764        11.5040 
-------
TIMINGS
-------

Total SCF time: 0 days 0 hours 0 min 0 sec 

Total time                  ....       0.074 sec
Sum of individual times     ....       0.062 sec  ( 83.6%)

Fock matrix formation       ....       0.048 sec  ( 64.6%)
Diagonalization             ....       0.005 sec  (  6.4%)
Density matrix formation    ....       0.001 sec  (  1.0%)
Population analysis         ....       0.000 sec  (  0.0%)
Initial guess               ....       0.001 sec  (  0.8%)
Orbital Transformation      ....       0.000 sec  (  0.0%)
Orbital Orthonormalization  ....       0.000 sec  (  0.0%)
DIIS solution               ....       0.005 sec  (  7.0%)
SOSCF solution              ....       0.003 sec  (  3.8%)

-------------------------   --------------------
FINAL SINGLE POINT ENERGY        -7.212493994751
-------------------------   --------------------


                            ***************************************
                            *     ORCA property calculations      *
                            ***************************************

                                    ---------------------
                                    Active property flags
                                    ---------------------
   (+) Dipole Moment


------------------------------------------------------------------------------
                       ORCA ELECTRIC PROPERTIES CALCULATION
------------------------------------------------------------------------------

Dipole Moment Calculation                       ... on
Quadrupole Moment Calculation                   ... off
Polarizability Calculation                      ... off
GBWName                                         ... /Users/mattyjones/GoogleDrive/Boise/Code/MorphCT/tests/output_EZ/donor_polymer/chromophores/input_orca/single/00015.gbw
Electron density file                           ... /Users/mattyjones/GoogleDrive/Boise/Code/MorphCT/tests/output_EZ/donor_polymer/chromophores/input_orca/single/00015.scfp.tmp

-------------
DIPOLE MOMENT
-------------
                                X             Y             Z
Electronic contribution:     44.66761     132.29939     -10.82198
Nuclear contribution   :    -24.38536     -71.22111       5.63966
                        -----------------------------------------
Total Dipole Moment    :     20.28225      61.07828      -5.18232
                        -----------------------------------------
Magnitude (a.u.)       :     64.56610
Magnitude (Debye)      :    164.11399


Timings for individual modules:

Sum of individual times         ...        0.137 sec (=   0.002 min)
STO integral calculation        ...        0.034 sec (=   0.001 min)  24.9 %
SCF iterations                  ...        0.103 sec (=   0.002 min)  75.1 %
                             ****ORCA TERMINATED NORMALLY****
TOTAL RUN TIME: 0 days 0 hours 0 minutes 0 seconds 447 msec

