
                                 *****************
                                 * O   R   C   A *
                                 *****************

           --- An Ab Initio, DFT and Semiempirical electronic structure package ---

                  #######################################################
                  #                        -***-                        #
                  #  Department of molecular theory and spectroscopy    #
                  #              Directorship: Frank Neese              #
                  # Max Planck Institute for Chemical Energy Conversion #
                  #                  D-45470 Muelheim/Ruhr              #
                  #                       Germany                       #
                  #                                                     #
                  #                  All rights reserved                #
                  #                        -***-                        #
                  #######################################################


                         Program Version 4.0.1.2 - RELEASE -


 With contributions from (in alphabetic order):
   Daniel Aravena         : Magnetic Properties
   Michael Atanasov       : Ab Initio Ligand Field Theory
   Ute Becker             : Parallelization
   Martin Brehm           : Molecular dynamics
   Dmytro Bykov           : SCF Hessian
   Vijay G. Chilkuri      : MRCI spin determinant printing
   Dipayan Datta          : RHF DLPNO-CCSD density
   Achintya Kumar Dutta   : EOM-CC, STEOM-CC
   Dmitry Ganyushin       : Spin-Orbit,Spin-Spin,Magnetic field MRCI
   Yang Guo               : DLPNO-NEVPT2, CIM, IAO-localization
   Andreas Hansen         : Spin unrestricted coupled pair/coupled cluster methods
   Lee Huntington         : MR-EOM, pCC
   Robert Izsak           : Overlap fitted RIJCOSX, COSX-SCS-MP3, EOM
   Christian Kollmar      : KDIIS, OOCD, Brueckner-CCSD(T), CCSD density
   Simone Kossmann        : Meta GGA functionals, TD-DFT gradient, OOMP2, MP2 Hessian
   Martin Krupicka        : AUTO-CI
   Dagmar Lenk            : GEPOL surface
   Dimitrios Liakos       : Extrapolation schemes; parallel MDCI
   Dimitrios Manganas     : ROCIS; embedding schemes
   Dimitrios Pantazis     : SARC Basis sets
   Taras Petrenko         : DFT Hessian,TD-DFT gradient, ASA, ECA, R-Raman, ABS, FL, XAS/XES, NRVS
   Peter Pinski           : DLPNO-MP2
   Christoph Reimann      : Effective Core Potentials
   Marius Retegan         : Local ZFS, SOC
   Christoph Riplinger    : Optimizer, TS searches, QM/MM, DLPNO-CCSD(T), (RO)-DLPNO pert. Triples
   Tobias Risthaus        : Range-separated hybrids, TD-DFT gradient, RPA, STAB
   Michael Roemelt        : Restricted open shell CIS
   Masaaki Saitow         : Open-shell DLPNO
   Barbara Sandhoefer     : DKH picture change effects
   Kantharuban Sivalingam : CASSCF convergence, NEVPT2, FIC-MRCI
   Georgi Stoychev        : AutoAux
   Boris Wezisla          : Elementary symmetry handling
   Frank Wennmohs         : Technical directorship


 We gratefully acknowledge several colleagues who have allowed us to
 interface, adapt or use parts of their codes:
   Stefan Grimme, W. Hujo, H. Kruse,             : VdW corrections, initial TS optimization,
                  C. Bannwarth                     DFT functionals, gCP, sTDA/sTD-DF
   Ed Valeev                                     : LibInt (2-el integral package), F12 methods
   Garnet Chan, S. Sharma, J. Yang, R. Olivares  : DMRG
   Ulf Ekstrom                                   : XCFun DFT Library
   Mihaly Kallay                                 : mrcc  (arbitrary order and MRCC methods)
   Andreas Klamt, Michael Diedenhofen            : otool_cosmo (COSMO solvation model)
   Jiri Pittner, Ondrej Demel                    : Mk-CCSD
   Frank Weinhold                                : gennbo (NPA and NBO analysis)
   Christopher J. Cramer and Donald G. Truhlar   : smd solvation model


 Your calculation uses the libint2 library for the computation of 2-el integrals
 For citations please refer to: http://libint.valeyev.net

 This ORCA versions uses:
   CBLAS   interface :  Fast vector & matrix operations
   LAPACKE interface :  Fast linear algebra routines
   SCALAPACK package :  Parallel linear algebra routines


leaving
Your calculation utilizes the basis: def2-SVP
   F. Weigend and R. Ahlrichs, Phys. Chem. Chem. Phys. 7, 3297 (2005).

================================================================================
                                        WARNINGS
                       Please study these warnings very carefully!
================================================================================

Warning: TCutStore was < 0. Adjusted to Thresh (uncritical)

WARNING: Direct SCF is incompatible with Method<>HF and Method<>DFT
  ===> : conventional SCF is chosen

WARNING: The NDO methods need Guess=HUECKEL or Guess=HCORE or Guess=MOREAD
  ===> : Guess is set to Hueckel

WARNING: The NDO methods need %rel::SOCType==1
  ===> : %rel::SOCType is set to 1

WARNING: The NDO methods cannot have frozencore=1
  ===> : %method FrozenCore=0 end

INFO   : the flag for use of LIBINT has been found!

================================================================================
                                       INPUT FILE
================================================================================
NAME = /home/mattyjones/Software/morphct/tests/output_EZ/donor_polymer/chromophores/input_orca/single/00017.inp
|  1> # ================================================================
|  2> # Orca input file made by Matty Jones
|  3> # ================================================================
|  4> ! ZINDO/S 
|  5> ! NOPOP
|  6> ! NOMOPRINT
|  7> * xyz 0   1
|  8>  C  5.00047  -0.25358  0.09026
|  9>  C  3.87289  -0.80194  -0.52271
| 10>  C  2.72225  0.04628  -0.49427
| 11>  C  2.94237  1.27061  0.14438
| 12>  S  4.52678  1.23965  0.63339
| 13>  H  3.42328  -1.84263  -0.04512
| 14>  C  1.37427  -0.50469  -1.18195
| 15>  C  -0.20070  -0.13129  -0.79211
| 16>  C  -0.85046  -1.04992  0.45317
| 17>  H  -0.52199  -2.14837  0.29349
| 18>  H  -0.39817  -0.66940  1.44702
| 19>  H  -0.24959  0.97640  -0.49399
| 20>  H  -0.84653  -0.29626  -1.73841
| 21>  H  1.39775  -1.68168  -1.15016
| 22>  H  1.45913  -0.22545  -2.32044
| 23>  C  -2.47438  -0.97698  0.51505
| 24>  C  -3.11162  0.43360  1.17989
| 25>  C  -3.46051  1.59516  0.01072
| 26>  H  -2.48737  1.90702  -0.53027
| 27>  H  -3.93523  2.51807  0.52234
| 28>  H  -4.20540  1.15004  -0.75548
| 29>  H  -4.08016  0.17725  1.74675
| 30>  H  -2.33424  0.86666  1.90611
| 31>  H  -2.90489  -1.09483  -0.55277
| 32>  H  -2.85876  -1.86012  1.16085
| 33>  H  5.95783  -0.69801  0.18798
| 34>  H  2.24298  2.05440  0.28626
| 35> *
| 36> 
| 37>                          ****END OF INPUT****
================================================================================

                       ****************************
                       * Single Point Calculation *
                       ****************************

---------------------------------
CARTESIAN COORDINATES (ANGSTROEM)
---------------------------------
  C      5.000470   -0.253580    0.090260
  C      3.872890   -0.801940   -0.522710
  C      2.722250    0.046280   -0.494270
  C      2.942370    1.270610    0.144380
  S      4.526780    1.239650    0.633390
  H      3.423280   -1.842630   -0.045120
  C      1.374270   -0.504690   -1.181950
  C     -0.200700   -0.131290   -0.792110
  C     -0.850460   -1.049920    0.453170
  H     -0.521990   -2.148370    0.293490
  H     -0.398170   -0.669400    1.447020
  H     -0.249590    0.976400   -0.493990
  H     -0.846530   -0.296260   -1.738410
  H      1.397750   -1.681680   -1.150160
  H      1.459130   -0.225450   -2.320440
  C     -2.474380   -0.976980    0.515050
  C     -3.111620    0.433600    1.179890
  C     -3.460510    1.595160    0.010720
  H     -2.487370    1.907020   -0.530270
  H     -3.935230    2.518070    0.522340
  H     -4.205400    1.150040   -0.755480
  H     -4.080160    0.177250    1.746750
  H     -2.334240    0.866660    1.906110
  H     -2.904890   -1.094830   -0.552770
  H     -2.858760   -1.860120    1.160850
  H      5.957830   -0.698010    0.187980
  H      2.242980    2.054400    0.286260

----------------------------
CARTESIAN COORDINATES (A.U.)
----------------------------
  NO LB      ZA    FRAG     MASS         X           Y           Z
   0 C     4.0000    0    12.011    9.449519   -0.479197    0.170567
   1 C     4.0000    0    12.011    7.318701   -1.515447   -0.987779
   2 C     4.0000    0    12.011    5.144307    0.087457   -0.934035
   3 C     4.0000    0    12.011    5.560273    2.401105    0.272839
   4 S     6.0000    0    32.060    8.554374    2.342599    1.196934
   5 H     1.0000    0     1.008    6.469062   -3.482066   -0.085264
   6 C     4.0000    0    12.011    2.596994   -0.953726   -2.233562
   7 C     4.0000    0    12.011   -0.379268   -0.248102   -1.496871
   8 C     4.0000    0    12.011   -1.607136   -1.984061    0.856367
   9 H     1.0000    0     1.008   -0.986418   -4.059831    0.554616
  10 H     1.0000    0     1.008   -0.752432   -1.264983    2.734472
  11 H     1.0000    0     1.008   -0.471657    1.845129   -0.933506
  12 H     1.0000    0     1.008   -1.599710   -0.559850   -3.285119
  13 H     1.0000    0     1.008    2.641365   -3.177915   -2.173487
  14 H     1.0000    0     1.008    2.757356   -0.426039   -4.384996
  15 C     4.0000    0    12.011   -4.675901   -1.846225    0.973303
  16 C     4.0000    0    12.011   -5.880110    0.819385    2.229669
  17 C     4.0000    0    12.011   -6.539416    3.014416    0.020258
  18 H     1.0000    0     1.008   -4.700448    3.603746   -1.002065
  19 H     1.0000    0     1.008   -7.436507    4.758463    0.987080
  20 H     1.0000    0     1.008   -7.947054    2.173261   -1.427650
  21 H     1.0000    0     1.008   -7.710385    0.334954    3.300879
  22 H     1.0000    0     1.008   -4.411074    1.637750    3.602026
  23 H     1.0000    0     1.008   -5.489447   -2.068929   -1.044584
  24 H     1.0000    0     1.008   -5.402273   -3.515117    2.193689
  25 H     1.0000    0     1.008   11.258667   -1.319048    0.355231
  26 H     1.0000    0     1.008    4.238618    3.882253    0.540953

--------------------------------
INTERNAL COORDINATES (ANGSTROEM)
--------------------------------
 C      0   0   0     0.000000000000     0.00000000     0.00000000
 C      1   0   0     1.395660261991     0.00000000     0.00000000
 C      2   1   0     1.429775650793   114.10189249     0.00000000
 C      3   2   1     1.398324206255   113.69297045     0.00000000
 S      1   2   3     1.658043499399   105.47994768     0.00000000
 H      2   1   3     1.230153257241   117.20432260   241.55351730
 C      3   2   1     1.610441493411   117.52608671   179.87855199
 C      7   3   2     1.664912396044   127.95857712   151.54584902
 C      8   7   3     1.678329947567   114.65851521   274.97521610
 H      9   8   7     1.157576194382   107.88962770   317.89954840
 H      9   8   7     1.156330202408   107.82854500    75.08400885
 H      8   7   3     1.148147596174   108.50892283    36.55891989
 H      8   7   3     1.157495218046   107.72330864   154.45841982
 H      7   3   2     1.177653333796   108.28327775    26.52301885
 H      7   3   2     1.175302376965   105.77843124   274.17244542
 C      9   8   7     1.626734626299   112.96439800   196.92850492
 C     16   9   8     1.684583918836   115.47903007   282.99304033
 C     17  16   9     1.684608071511   112.44506262    93.23063329
 H     18  17  16     1.156256156438   109.65712241   297.77595371
 H     18  17  16     1.157098513913   109.15095034   177.58264629
 H     18  17  16     1.157607604718   109.11730594    57.84071733
 H     17  16   9     1.151136531303   109.03513399   213.89398160
 H     17  16   9     1.148588749901   108.01223918   333.41111275
 H     16   9   8     1.157353461567   109.37028857    44.99785747
 H     16   9   8     1.159630063425   108.53784352   162.88939616
 H      1   2   3     1.060002543818   127.26059677   180.00000650
 H      4   3   2     1.060001448395   127.20617366   180.00014488

---------------------------
INTERNAL COORDINATES (A.U.)
---------------------------
 C      0   0   0     0.000000000000     0.00000000     0.00000000
 C      1   0   0     2.637415671159     0.00000000     0.00000000
 C      2   1   0     2.701884412947   114.10189249     0.00000000
 C      3   2   1     2.642449796256   113.69297045     0.00000000
 S      1   2   3     3.133248131993   105.47994768     0.00000000
 H      2   1   3     2.324652758936   117.20432260   241.55351730
 C      3   2   1     3.043293377250   117.52608671   179.87855199
 C      7   3   2     3.146228465493   127.95857712   151.54584902
 C      8   7   3     3.171583963260   114.65851521   274.97521610
 H      9   8   7     2.187501986529   107.88962770   317.89954840
 H      9   8   7     2.185147402932   107.82854500    75.08400885
 H      8   7   3     2.169684518089   108.50892283    36.55891989
 H      8   7   3     2.187348963431   107.72330864   154.45841982
 H      7   3   2     2.225442281573   108.28327775    26.52301885
 H      7   3   2     2.220999617011   105.77843124   274.17244542
 C      9   8   7     3.074082936272   112.96439800   196.92850492
 C     16   9   8     3.183402256207   115.47903007   282.99304033
 C     17  16   9     3.183447898149   112.44506262    93.23063329
 H     18  17  16     2.185007476328   109.65712241   297.77595371
 H     18  17  16     2.186599301263   109.15095034   177.58264629
 H     18  17  16     2.187561343461   109.11730594    57.84071733
 H     17  16   9     2.175332786914   109.03513399   213.89398160
 H     17  16   9     2.170518177817   108.01223918   333.41111275
 H     16   9   8     2.187081082506   109.37028857    44.99785747
 H     16   9   8     2.191383236536   108.53784352   162.88939616
 H      1   2   3     2.003114509075   127.26059677   180.00000650
 H      4   3   2     2.003112439027   127.20617366   180.00014488

----------------------------
SLATER BASIS SET DIM=  60
----------------------------
  0 C     2 shells
 l=0 nsto= 1
    2       1.625000000000        1.000000000000
 l=1 nsto= 1
    2       1.625000000000        1.000000000000
  1 C     2 shells
 l=0 nsto= 1
    2       1.625000000000        1.000000000000
 l=1 nsto= 1
    2       1.625000000000        1.000000000000
  2 C     2 shells
 l=0 nsto= 1
    2       1.625000000000        1.000000000000
 l=1 nsto= 1
    2       1.625000000000        1.000000000000
  3 C     2 shells
 l=0 nsto= 1
    2       1.625000000000        1.000000000000
 l=1 nsto= 1
    2       1.625000000000        1.000000000000
  4 S     2 shells
 l=0 nsto= 1
    3       1.925000000000        1.000000000000
 l=1 nsto= 1
    3       1.925000000000        1.000000000000
  5 H     1 shells
 l=0 nsto= 1
    1       1.200000000000        1.000000000000
  6 C     2 shells
 l=0 nsto= 1
    2       1.625000000000        1.000000000000
 l=1 nsto= 1
    2       1.625000000000        1.000000000000
  7 C     2 shells
 l=0 nsto= 1
    2       1.625000000000        1.000000000000
 l=1 nsto= 1
    2       1.625000000000        1.000000000000
  8 C     2 shells
 l=0 nsto= 1
    2       1.625000000000        1.000000000000
 l=1 nsto= 1
    2       1.625000000000        1.000000000000
  9 H     1 shells
 l=0 nsto= 1
    1       1.200000000000        1.000000000000
 10 H     1 shells
 l=0 nsto= 1
    1       1.200000000000        1.000000000000
 11 H     1 shells
 l=0 nsto= 1
    1       1.200000000000        1.000000000000
 12 H     1 shells
 l=0 nsto= 1
    1       1.200000000000        1.000000000000
 13 H     1 shells
 l=0 nsto= 1
    1       1.200000000000        1.000000000000
 14 H     1 shells
 l=0 nsto= 1
    1       1.200000000000        1.000000000000
 15 C     2 shells
 l=0 nsto= 1
    2       1.625000000000        1.000000000000
 l=1 nsto= 1
    2       1.625000000000        1.000000000000
 16 C     2 shells
 l=0 nsto= 1
    2       1.625000000000        1.000000000000
 l=1 nsto= 1
    2       1.625000000000        1.000000000000
 17 C     2 shells
 l=0 nsto= 1
    2       1.625000000000        1.000000000000
 l=1 nsto= 1
    2       1.625000000000        1.000000000000
 18 H     1 shells
 l=0 nsto= 1
    1       1.200000000000        1.000000000000
 19 H     1 shells
 l=0 nsto= 1
    1       1.200000000000        1.000000000000
 20 H     1 shells
 l=0 nsto= 1
    1       1.200000000000        1.000000000000
 21 H     1 shells
 l=0 nsto= 1
    1       1.200000000000        1.000000000000
 22 H     1 shells
 l=0 nsto= 1
    1       1.200000000000        1.000000000000
 23 H     1 shells
 l=0 nsto= 1
    1       1.200000000000        1.000000000000
 24 H     1 shells
 l=0 nsto= 1
    1       1.200000000000        1.000000000000
 25 H     1 shells
 l=0 nsto= 1
    1       1.200000000000        1.000000000000
 26 H     1 shells
 l=0 nsto= 1
    1       1.200000000000        1.000000000000
------------------------------------------------------------------------------
                           ORCA NDO INTEGRAL CALCULATION
------------------------------------------------------------------------------

--------------
NDO PARAMETERS
--------------

Gamma integral treatment              ... Mataga-Nishimoto
Nuclear repulsuion treatment          ... Direct (ZA*ZB/RAB)
Interaction factors:
s-s (sigma) =    1.0000
s-p (sigma) =    1.0000
s-d (sigma) =    1.0000
p-p (sigma) =    1.2670  p-p(pi) =    0.5850
p-d (sigma) =    1.0000  p-d(pi) =    1.0000
d-d (sigma) =    1.0000  d-d(pi) =    1.0000 d-d (delta) =    1.0000

fGamma parameter for Mataga-Nishimoto gamma integrals:    1.2000

--------------------------
Parameters for Element H :
--------------------------
 One-electron parameters (in eV)
  U(s)  =   -13.060000 Beta(s) =    12.000000 Neff(s) =     1.000000
 One-center electron repulsion parameters (in eV)
  G(s,s)=    12.850000
--------------------------
Parameters for Element C :
--------------------------
 One-electron parameters (in eV)
  U(s)  =   -50.870766 Beta(s) =    17.000000 Neff(s) =     2.000000
  U(p)  =   -41.599980 Beta(p) =    17.000000 Neff(p) =     2.000000 
 One-center electron repulsion parameters (in eV)
  G(s,s)=    11.110000
  G(s,p)=    11.110000 G(p,p)  =    11.110000
 Slater-Condon parameters (in eV)
 F2(p,p)=     4.5098 G1(s,p)=    6.8977
--------------------------
Parameters for Element S :
--------------------------
 One-electron parameters (in eV)
  U(s)  =   -69.509597 Beta(s) =    15.000000 Neff(s) =     2.000000
  U(p)  =   -60.725746 Beta(p) =    15.000000 Neff(p) =     4.000000 
 One-center electron repulsion parameters (in eV)
  G(s,s)=    10.090000
  G(s,p)=    10.090000 G(p,p)  =    10.090000
 Slater-Condon parameters (in eV)
 F2(p,p)=     4.5377 G1(s,p)=    3.0756

 Number of atoms                    ....   27
 Number of basis functions          ....   60

 Overlap integrals                  .... done
 One electron matrix                .... done
 Nuclear repulsion                  .... done
 Integral list                      .... done
 Electron-electron repulsion        .... done
-------------------------------------------------------------------------------
                                 ORCA SCF
-------------------------------------------------------------------------------

------------
SCF SETTINGS
------------
Hamiltonian:
 ZDO-Hamiltonian        Method          .... INDO


General Settings:
 Integral files         IntName         .... /home/mattyjones/Software/morphct/tests/output_EZ/donor_polymer/chromophores/input_orca/single/00017
 Hartree-Fock type      HFTyp           .... RHF
 Total Charge           Charge          ....    0
 Multiplicity           Mult            ....    1
 Number of Electrons    NEL             ....   62
 Basis Dimension        Dim             ....   60
 Nuclear Repulsion      ENuc            ....    297.4715332977 Eh

Convergence Acceleration:
 DIIS                   CNVDIIS         .... on
   Start iteration      DIISMaxIt       ....    12
   Startup error        DIISStart       ....  0.200000
   # of expansion vecs  DIISMaxEq       ....     5
   Bias factor          DIISBfac        ....   1.050
   Max. coefficient     DIISMaxC        ....  10.000
 Newton-Raphson         CNVNR           .... off
 SOSCF                  CNVSOSCF        .... on
   Start iteration      SOSCFMaxIt      ....   150
   Startup grad/error   SOSCFStart      ....  0.003300
 Level Shifting         CNVShift        .... on
   Level shift para.    LevelShift      ....    0.2500
   Turn off err/grad.   ShiftErr        ....    0.0010
 Zerner damping         CNVZerner       .... off
 Static damping         CNVDamp         .... on
   Fraction old density DampFac         ....    0.7000
   Max. Damping (<1)    DampMax         ....    0.9800
   Min. Damping (>=0)   DampMin         ....    0.0000
   Turn off err/grad.   DampErr         ....    0.1000
 Fernandez-Rico         CNVRico         .... off

SCF Procedure:
 Maximum # iterations   MaxIter         ....   125
 SCF integral mode      SCFMode         .... Conventional
 Integral Buffer length BufferLength    .... 1048576
 Integral index format  IndFormat       ....     0
 Integral value format  ValFormat       ....     0
 Integral Storage       Thresh          ....  1.000e-08 Eh

Convergence Tolerance:
 Convergence Check Mode ConvCheckMode   .... Total+1el-Energy
 Convergence forced     ConvForced      .... 0
 Energy Change          TolE            ....  1.000e-06 Eh
 1-El. energy change                    ....  1.000e-03 Eh
 Orbital Gradient       TolG            ....  5.000e-05
 Orbital Rotation angle TolX            ....  5.000e-05
 DIIS Error             TolErr          ....  1.000e-06


Diagonalization of the overlap matrix:
Smallest eigenvalue                        ... 1.677e-01
Time for diagonalization                   ...    0.001 sec
Threshold for overlap eigenvalues          ... 1.000e-08
Number of eigenvalues below threshold      ... 0
Time for construction of square roots      ...    0.000 sec
Total time needed                          ...    0.001 sec

-------------------------------
INITIAL GUESS: EXTENDED HUECKEL
-------------------------------
EHT matrix was read from disk
EHT matrix was diagonalized
Initial density was built
                      ------------------
                      INITIAL GUESS DONE
                      ------------------

 InCore treatment chosen:
   Memory dedicated               ...    1024 MB
   Memory needed                  ...      0 MB
   Number of tiny    integrals    ...       0
   Number of small   integrals    ...       0
   Number of regular integrals    ...    1896

--------------
SCF ITERATIONS
--------------
ITER       Energy         Delta-E        Max-DP      RMS-DP      [F,P]     Damp
  0     -5.7891382519   0.000000000000 0.05090733  0.00227336  0.1111661 0.7000
  1     -5.8141640919  -0.025025840016 0.04935758  0.00215624  0.0758454 0.7000
                               ***Turning on DIIS***
  2     -5.8325026187  -0.018338526717 0.12854142  0.00553664  0.0466760 0.0000
  3     -5.8815875850  -0.049084966392 0.01970635  0.00115225  0.0253021 0.0000
  4     -5.8706555605   0.010932024585 0.01400375  0.00084199  0.0095461 0.0000
  5     -5.8800613169  -0.009405756477 0.00971614  0.00057932  0.0057508 0.0000
  6     -5.8810892666  -0.001027949648 0.00760553  0.00042736  0.0031073 0.0000
  7     -5.8798329796   0.001256286971 0.00499772  0.00026203  0.0017634 0.0000
                      *** Initiating the SOSCF procedure ***
                           *** Shutting down DIIS ***
                      *** Re-Reading the Fockian *** 
                      *** Removing any level shift *** 
ITER      Energy       Delta-E        Grad      Rot      Max-DP    RMS-DP
  8     -5.87945873   0.0003742483  0.002109  0.002109  0.002915  0.000146
  9     -5.87900966   0.0004490730  0.000597  0.001790  0.001412  0.000072
 10     -5.87901415  -0.0000044943  0.000280  0.002038  0.001850  0.000088
 11     -5.87901606  -0.0000019106  0.000049  0.000124  0.000247  0.000009
                 **** Energy Check signals convergence ****
              ***Rediagonalizing the Fockian in SOSCF/NRSCF***

               *****************************************************
               *                     SUCCESS                       *
               *           SCF CONVERGED AFTER  12 CYCLES          *
               *****************************************************


----------------
TOTAL SCF ENERGY
----------------

Total Energy       :           -5.87901612 Eh            -159.97616 eV

Components:
Nuclear Repulsion  :          297.47153330 Eh            8094.61194 eV
Electronic Energy  :         -303.35054942 Eh           -8254.58810 eV
One Electron Energy:         -561.54871803 Eh          -15280.51746 eV
Two Electron Energy:          258.19816861 Eh            7025.92936 eV


---------------
SCF CONVERGENCE
---------------

  Last Energy change         ...   -5.4738e-08  Tolerance :   1.0000e-06
  Last MAX-Density change    ...    8.3049e-05  Tolerance :   1.0000e-05
  Last RMS-Density change    ...    3.2053e-06  Tolerance :   1.0000e-06
  Last Orbital Gradient      ...    1.4863e-05  Tolerance :   5.0000e-05
  Last Orbital Rotation      ...    3.4326e-05  Tolerance :   5.0000e-05

             **** THE GBW FILE WAS UPDATED (/home/mattyjones/Software/morphct/tests/output_EZ/donor_polymer/chromophores/input_orca/single/00017.gbw) ****
             **** DENSITY FILE WAS UPDATED (/home/mattyjones/Software/morphct/tests/output_EZ/donor_polymer/chromophores/input_orca/single/00017.scfp.tmp) ****
             **** ENERGY FILE WAS UPDATED (/home/mattyjones/Software/morphct/tests/output_EZ/donor_polymer/chromophores/input_orca/single/00017.en.tmp) ****
----------------
ORBITAL ENERGIES
----------------

  NO   OCC          E(Eh)            E(eV) 
   0   2.0000      -1.564797       -42.5803 
   1   2.0000      -1.415910       -38.5289 
   2   2.0000      -1.290152       -35.1068 
   3   2.0000      -1.174887       -31.9703 
   4   2.0000      -1.104268       -30.0487 
   5   2.0000      -1.062593       -28.9146 
   6   2.0000      -0.958149       -26.0726 
   7   2.0000      -0.881297       -23.9813 
   8   2.0000      -0.861870       -23.4527 
   9   2.0000      -0.831705       -22.6318 
  10   2.0000      -0.777064       -21.1450 
  11   2.0000      -0.724363       -19.7109 
  12   2.0000      -0.691793       -18.8246 
  13   2.0000      -0.668937       -18.2027 
  14   2.0000      -0.652886       -17.7659 
  15   2.0000      -0.614545       -16.7226 
  16   2.0000      -0.583511       -15.8781 
  17   2.0000      -0.578645       -15.7457 
  18   2.0000      -0.571588       -15.5537 
  19   2.0000      -0.555960       -15.1284 
  20   2.0000      -0.532806       -14.4984 
  21   2.0000      -0.517341       -14.0776 
  22   2.0000      -0.512206       -13.9378 
  23   2.0000      -0.494566       -13.4578 
  24   2.0000      -0.477270       -12.9872 
  25   2.0000      -0.473270       -12.8783 
  26   2.0000      -0.466647       -12.6981 
  27   2.0000      -0.459115       -12.4931 
  28   2.0000      -0.435769       -11.8579 
  29   2.0000      -0.338191        -9.2026 
  30   2.0000      -0.304096        -8.2749 
  31   0.0000      -0.004955        -0.1348 
  32   0.0000       0.053472         1.4551 
  33   0.0000       0.078361         2.1323 
  34   0.0000       0.092754         2.5240 
  35   0.0000       0.103565         2.8181 
  36   0.0000       0.111595         3.0366 
  37   0.0000       0.127615         3.4726 
  38   0.0000       0.143827         3.9137 
  39   0.0000       0.159874         4.3504 
  40   0.0000       0.168339         4.5807 
  41   0.0000       0.184581         5.0227 
  42   0.0000       0.200331         5.4513 
  43   0.0000       0.231160         6.2902 
  44   0.0000       0.234740         6.3876 
  45   0.0000       0.237112         6.4522 
  46   0.0000       0.239457         6.5160 
  47   0.0000       0.241630         6.5751 
  48   0.0000       0.244915         6.6645 
  49   0.0000       0.246770         6.7149 
  50   0.0000       0.260743         7.0952 
  51   0.0000       0.262357         7.1391 
  52   0.0000       0.264669         7.2020 
  53   0.0000       0.281023         7.6470 
  54   0.0000       0.303109         8.2480 
  55   0.0000       0.308827         8.4036 
  56   0.0000       0.327293         8.9061 
  57   0.0000       0.347286         9.4501 
  58   0.0000       0.417898        11.3716 
  59   0.0000       0.434302        11.8179 
-------
TIMINGS
-------

Total SCF time: 0 days 0 hours 0 min 0 sec 

Total time                  ....       0.089 sec
Sum of individual times     ....       0.079 sec  ( 88.1%)

Fock matrix formation       ....       0.052 sec  ( 58.6%)
Diagonalization             ....       0.007 sec  (  8.3%)
Density matrix formation    ....       0.001 sec  (  0.6%)
Population analysis         ....       0.000 sec  (  0.0%)
Initial guess               ....       0.001 sec  (  0.8%)
Orbital Transformation      ....       0.000 sec  (  0.0%)
Orbital Orthonormalization  ....       0.000 sec  (  0.0%)
DIIS solution               ....       0.002 sec  (  2.1%)
SOSCF solution              ....       0.016 sec  ( 17.6%)

-------------------------   --------------------
FINAL SINGLE POINT ENERGY        -5.879016117949
-------------------------   --------------------


                            ***************************************
                            *     ORCA property calculations      *
                            ***************************************

                                    ---------------------
                                    Active property flags
                                    ---------------------
   (+) Dipole Moment


------------------------------------------------------------------------------
                       ORCA ELECTRIC PROPERTIES CALCULATION
------------------------------------------------------------------------------

Dipole Moment Calculation                       ... on
Quadrupole Moment Calculation                   ... off
Polarizability Calculation                      ... off
GBWName                                         ... /home/mattyjones/Software/morphct/tests/output_EZ/donor_polymer/chromophores/input_orca/single/00017.gbw
Electron density file                           ... /home/mattyjones/Software/morphct/tests/output_EZ/donor_polymer/chromophores/input_orca/single/00017.scfp.tmp
The origin for moment calculation is the CENTER OF MASS  = ( 2.296706,  0.386172  0.147013)

-------------
DIPOLE MOMENT
-------------
                                X             Y             Z
Electronic contribution:    125.15677      27.28228      12.75335
Nuclear contribution   :    -66.66000     -14.34285      -6.51794
                        -----------------------------------------
Total Dipole Moment    :     58.49677      12.93943       6.23541
                        -----------------------------------------
Magnitude (a.u.)       :     60.23439
Magnitude (Debye)      :    153.10365


Timings for individual modules:

Sum of individual times         ...        0.121 sec (=   0.002 min)
STO integral calculation        ...        0.014 sec (=   0.000 min)  11.8 %
SCF iterations                  ...        0.107 sec (=   0.002 min)  88.2 %
                             ****ORCA TERMINATED NORMALLY****
TOTAL RUN TIME: 0 days 0 hours 0 minutes 0 seconds 371 msec

