
                                 *****************
                                 * O   R   C   A *
                                 *****************

           --- An Ab Initio, DFT and Semiempirical electronic structure package ---

                  #######################################################
                  #                        -***-                        #
                  #  Department of molecular theory and spectroscopy    #
                  #              Directorship: Frank Neese              #
                  # Max Planck Institute for Chemical Energy Conversion #
                  #                  D-45470 Muelheim/Ruhr              #
                  #                       Germany                       #
                  #                                                     #
                  #                  All rights reserved                #
                  #                        -***-                        #
                  #######################################################


                         Program Version 4.0.1.2 - RELEASE -


 With contributions from (in alphabetic order):
   Daniel Aravena         : Magnetic Properties
   Michael Atanasov       : Ab Initio Ligand Field Theory
   Ute Becker             : Parallelization
   Martin Brehm           : Molecular dynamics
   Dmytro Bykov           : SCF Hessian
   Vijay G. Chilkuri      : MRCI spin determinant printing
   Dipayan Datta          : RHF DLPNO-CCSD density
   Achintya Kumar Dutta   : EOM-CC, STEOM-CC
   Dmitry Ganyushin       : Spin-Orbit,Spin-Spin,Magnetic field MRCI
   Yang Guo               : DLPNO-NEVPT2, CIM, IAO-localization
   Andreas Hansen         : Spin unrestricted coupled pair/coupled cluster methods
   Lee Huntington         : MR-EOM, pCC
   Robert Izsak           : Overlap fitted RIJCOSX, COSX-SCS-MP3, EOM
   Christian Kollmar      : KDIIS, OOCD, Brueckner-CCSD(T), CCSD density
   Simone Kossmann        : Meta GGA functionals, TD-DFT gradient, OOMP2, MP2 Hessian
   Martin Krupicka        : AUTO-CI
   Dagmar Lenk            : GEPOL surface
   Dimitrios Liakos       : Extrapolation schemes; parallel MDCI
   Dimitrios Manganas     : ROCIS; embedding schemes
   Dimitrios Pantazis     : SARC Basis sets
   Taras Petrenko         : DFT Hessian,TD-DFT gradient, ASA, ECA, R-Raman, ABS, FL, XAS/XES, NRVS
   Peter Pinski           : DLPNO-MP2
   Christoph Reimann      : Effective Core Potentials
   Marius Retegan         : Local ZFS, SOC
   Christoph Riplinger    : Optimizer, TS searches, QM/MM, DLPNO-CCSD(T), (RO)-DLPNO pert. Triples
   Tobias Risthaus        : Range-separated hybrids, TD-DFT gradient, RPA, STAB
   Michael Roemelt        : Restricted open shell CIS
   Masaaki Saitow         : Open-shell DLPNO
   Barbara Sandhoefer     : DKH picture change effects
   Kantharuban Sivalingam : CASSCF convergence, NEVPT2, FIC-MRCI
   Georgi Stoychev        : AutoAux
   Boris Wezisla          : Elementary symmetry handling
   Frank Wennmohs         : Technical directorship


 We gratefully acknowledge several colleagues who have allowed us to
 interface, adapt or use parts of their codes:
   Stefan Grimme, W. Hujo, H. Kruse,             : VdW corrections, initial TS optimization,
                  C. Bannwarth                     DFT functionals, gCP, sTDA/sTD-DF
   Ed Valeev                                     : LibInt (2-el integral package), F12 methods
   Garnet Chan, S. Sharma, J. Yang, R. Olivares  : DMRG
   Ulf Ekstrom                                   : XCFun DFT Library
   Mihaly Kallay                                 : mrcc  (arbitrary order and MRCC methods)
   Andreas Klamt, Michael Diedenhofen            : otool_cosmo (COSMO solvation model)
   Jiri Pittner, Ondrej Demel                    : Mk-CCSD
   Frank Weinhold                                : gennbo (NPA and NBO analysis)
   Christopher J. Cramer and Donald G. Truhlar   : smd solvation model


 Your calculation uses the libint2 library for the computation of 2-el integrals
 For citations please refer to: http://libint.valeyev.net

 This ORCA versions uses:
   CBLAS   interface :  Fast vector & matrix operations
   LAPACKE interface :  Fast linear algebra routines
   SCALAPACK package :  Parallel linear algebra routines


leaving
Your calculation utilizes the basis: def2-SVP
   F. Weigend and R. Ahlrichs, Phys. Chem. Chem. Phys. 7, 3297 (2005).

================================================================================
                                        WARNINGS
                       Please study these warnings very carefully!
================================================================================

Warning: TCutStore was < 0. Adjusted to Thresh (uncritical)

WARNING: Direct SCF is incompatible with Method<>HF and Method<>DFT
  ===> : conventional SCF is chosen

WARNING: The NDO methods need Guess=HUECKEL or Guess=HCORE or Guess=MOREAD
  ===> : Guess is set to Hueckel

WARNING: The NDO methods need %rel::SOCType==1
  ===> : %rel::SOCType is set to 1

WARNING: The NDO methods cannot have frozencore=1
  ===> : %method FrozenCore=0 end

INFO   : the flag for use of LIBINT has been found!

================================================================================
                                       INPUT FILE
================================================================================
NAME = /home/mattyjones/Software/morphct/tests/output_EZ/donor_polymer/chromophores/input_orca/single/00023.inp
|  1> # ================================================================
|  2> # Orca input file made by Matty Jones
|  3> # ================================================================
|  4> ! ZINDO/S 
|  5> ! NOPOP
|  6> ! NOMOPRINT
|  7> * xyz 0   1
|  8>  C  4.07171  -0.20871  -2.52408
|  9>  C  3.17890  -1.19450  -2.10099
| 10>  C  2.12031  -0.70692  -1.27278
| 11>  C  2.17753  0.67083  -1.04072
| 12>  S  3.51603  1.20570  -1.86093
| 13>  H  3.38985  -2.29152  -1.74715
| 14>  C  1.03922  -1.79125  -0.75776
| 15>  C  -0.59110  -1.57922  -0.32895
| 16>  C  -1.35426  -0.10906  -0.01214
| 17>  H  -0.78247  0.75667  -0.50714
| 18>  H  -2.43445  -0.14281  -0.41400
| 19>  H  -1.19263  -2.02942  -1.21504
| 20>  H  -0.75990  -2.26277  0.58961
| 21>  H  1.49818  -2.29931  0.19422
| 22>  H  0.97669  -2.62928  -1.57831
| 23>  C  -1.34277  0.00902  1.61298
| 24>  C  -2.05435  1.35186  2.30160
| 25>  C  -2.81591  2.42798  1.26255
| 26>  H  -3.35766  1.83608  0.42738
| 27>  H  -2.02253  3.12540  0.78868
| 28>  H  -3.59697  3.06635  1.82443
| 29>  H  -2.76269  0.96689  3.11344
| 30>  H  -1.18044  1.86829  2.81075
| 31>  H  -1.90491  -0.91114  2.04948
| 32>  H  -0.24647  -0.04373  1.98623
| 33>  H  4.92509  -0.33717  -3.13957
| 34>  H  1.50599  1.25174  -0.46178
| 35> *
| 36> 
| 37>                          ****END OF INPUT****
================================================================================

                       ****************************
                       * Single Point Calculation *
                       ****************************

---------------------------------
CARTESIAN COORDINATES (ANGSTROEM)
---------------------------------
  C      4.071710   -0.208710   -2.524080
  C      3.178900   -1.194500   -2.100990
  C      2.120310   -0.706920   -1.272780
  C      2.177530    0.670830   -1.040720
  S      3.516030    1.205700   -1.860930
  H      3.389850   -2.291520   -1.747150
  C      1.039220   -1.791250   -0.757760
  C     -0.591100   -1.579220   -0.328950
  C     -1.354260   -0.109060   -0.012140
  H     -0.782470    0.756670   -0.507140
  H     -2.434450   -0.142810   -0.414000
  H     -1.192630   -2.029420   -1.215040
  H     -0.759900   -2.262770    0.589610
  H      1.498180   -2.299310    0.194220
  H      0.976690   -2.629280   -1.578310
  C     -1.342770    0.009020    1.612980
  C     -2.054350    1.351860    2.301600
  C     -2.815910    2.427980    1.262550
  H     -3.357660    1.836080    0.427380
  H     -2.022530    3.125400    0.788680
  H     -3.596970    3.066350    1.824430
  H     -2.762690    0.966890    3.113440
  H     -1.180440    1.868290    2.810750
  H     -1.904910   -0.911140    2.049480
  H     -0.246470   -0.043730    1.986230
  H      4.925090   -0.337170   -3.139570
  H      1.505990    1.251740   -0.461780

----------------------------
CARTESIAN COORDINATES (A.U.)
----------------------------
  NO LB      ZA    FRAG     MASS         X           Y           Z
   0 C     4.0000    0    12.011    7.694417   -0.394405   -4.769820
   1 C     4.0000    0    12.011    6.007250   -2.257278   -3.970296
   2 C     4.0000    0    12.011    4.006805   -1.335885   -2.405206
   3 C     4.0000    0    12.011    4.114935    1.267685   -1.966676
   4 S     6.0000    0    32.060    6.644334    2.278443   -3.516648
   5 H     1.0000    0     1.008    6.405888   -4.330345   -3.301635
   6 C     4.0000    0    12.011    1.963841   -3.384972   -1.431959
   7 C     4.0000    0    12.011   -1.117017   -2.984293   -0.621625
   8 C     4.0000    0    12.011   -2.559181   -0.206094   -0.022941
   9 H     1.0000    0     1.008   -1.478654    1.429899   -0.958356
  10 H     1.0000    0     1.008   -4.600444   -0.269872   -0.782347
  11 H     1.0000    0     1.008   -2.253744   -3.835048   -2.296093
  12 H     1.0000    0     1.008   -1.436003   -4.276016    1.114201
  13 H     1.0000    0     1.008    2.831150   -4.345066    0.367023
  14 H     1.0000    0     1.008    1.845677   -4.968619   -2.982574
  15 C     4.0000    0    12.011   -2.537468    0.017045    3.048090
  16 C     4.0000    0    12.011   -3.882159    2.554645    4.349394
  17 C     4.0000    0    12.011   -5.321299    4.588217    2.385874
  18 H     1.0000    0     1.008   -6.345058    3.469688    0.807631
  19 H     1.0000    0     1.008   -3.822028    5.906150    1.490389
  20 H     1.0000    0     1.008   -6.797288    5.794562    3.447673
  21 H     1.0000    0     1.008   -5.220727    1.827157    5.883549
  22 H     1.0000    0     1.008   -2.230708    3.530556    5.311548
  23 H     1.0000    0     1.008   -3.599758   -1.721805    3.872956
  24 H     1.0000    0     1.008   -0.465761   -0.082638    3.753431
  25 H     1.0000    0     1.008    9.307071   -0.637159   -5.932927
  26 H     1.0000    0     1.008    2.845909    2.365446   -0.872638

--------------------------------
INTERNAL COORDINATES (ANGSTROEM)
--------------------------------
 C      0   0   0     0.000000000000     0.00000000     0.00000000
 C      1   0   0     1.395670723452     0.00000000     0.00000000
 C      2   1   0     1.429782797700   114.10156449     0.00000000
 C      3   2   1     1.398327942401   113.69276871     0.00000000
 S      1   2   3     1.658042168643   105.47973385     0.00000000
 H      2   1   3     1.171817190734   129.61413389   220.08687064
 C      3   2   1     1.615479104600   116.82357798   179.39173527
 C      7   3   2     1.699052100261   129.70484934   207.15009841
 C      8   7   3     1.686461439613   126.18640257   344.92891151
 H      9   8   7     1.149546535378   110.52014123    22.38306809
 H      9   8   7     1.153013858633   109.44795454   143.37010827
 H      8   7   3     1.161754650948   104.83142224   105.59398757
 H      8   7   3     1.157361877763   105.45919143   218.93764366
 H      7   3   2     1.172618934522   106.72076175    83.47646158
 H      7   3   2     1.174523982003   106.96685883   330.14281303
 C      9   8   7     1.629444666412   104.32000824   262.06502613
 C     16   9   8     1.668461227119   117.83639792   181.12093364
 C     17  16   9     1.678580588027   116.99977665     3.88682442
 H     18  17  16     1.158165619158   109.32681193    38.31481750
 H     18  17  16     1.157756130496   109.18628316   278.58124474
 H     18  17  16     1.154677493892   111.10673739   158.01827865
 H     17  16   9     1.144129206908   106.62431002   130.06165938
 H     17  16   9     1.135628616890   102.87621279   243.73508336
 H     16   9   8     1.163283308227   108.27067657   301.29480491
 H     16   9   8     1.159297983695   108.93398480    57.87480802
 H      1   2   3     1.059994026445   127.26001183   179.99978215
 H      4   3   2     1.059997133628   127.20587071   179.99992402

---------------------------
INTERNAL COORDINATES (A.U.)
---------------------------
 C      0   0   0     0.000000000000     0.00000000     0.00000000
 C      1   0   0     2.637435440455     0.00000000     0.00000000
 C      2   1   0     2.701897918645   114.10156449     0.00000000
 C      3   2   1     2.642456856548   113.69276871     0.00000000
 S      1   2   3     3.133245617229   105.47973385     0.00000000
 H      2   1   3     2.214413569508   129.61413389   220.08687064
 C      3   2   1     3.052813082767   116.82357798   179.39173527
 C      7   3   2     3.210743156756   129.70484934   207.15009841
 C      8   7   3     3.186950256286   126.18640257   344.92891151
 H      9   8   7     2.172328130063   110.52014123    22.38306809
 H      9   8   7     2.178880421432   109.44795454   143.37010827
 H      8   7   3     2.195398125102   104.83142224   105.59398757
 H      8   7   3     2.187096986814   105.45919143   218.93764366
 H      7   3   2     2.215928645698   106.72076175    83.47646158
 H      7   3   2     2.219528663708   106.96685883   330.14281303
 C      9   8   7     3.079204169898   104.32000824   262.06502613
 C     16   9   8     3.152934784321   117.83639792   181.12093364
 C     17  16   9     3.172057605087   116.99977665     3.88682442
 H     18  17  16     2.188615837932   109.32681193    38.31481750
 H     18  17  16     2.187842016505   109.18628316   278.58124474
 H     18  17  16     2.182024236458   111.10673739   158.01827865
 H     17  16   9     2.162090862877   106.62431002   130.06165938
 H     17  16   9     2.146027075766   102.87621279   243.73508336
 H     16   9   8     2.198286868711   108.27067657   301.29480491
 H     16   9   8     2.190755696791   108.93398480    57.87480802
 H      1   2   3     2.003098413574   127.26001183   179.99978215
 H      4   3   2     2.003104285299   127.20587071   179.99992402

----------------------------
SLATER BASIS SET DIM=  60
----------------------------
  0 C     2 shells
 l=0 nsto= 1
    2       1.625000000000        1.000000000000
 l=1 nsto= 1
    2       1.625000000000        1.000000000000
  1 C     2 shells
 l=0 nsto= 1
    2       1.625000000000        1.000000000000
 l=1 nsto= 1
    2       1.625000000000        1.000000000000
  2 C     2 shells
 l=0 nsto= 1
    2       1.625000000000        1.000000000000
 l=1 nsto= 1
    2       1.625000000000        1.000000000000
  3 C     2 shells
 l=0 nsto= 1
    2       1.625000000000        1.000000000000
 l=1 nsto= 1
    2       1.625000000000        1.000000000000
  4 S     2 shells
 l=0 nsto= 1
    3       1.925000000000        1.000000000000
 l=1 nsto= 1
    3       1.925000000000        1.000000000000
  5 H     1 shells
 l=0 nsto= 1
    1       1.200000000000        1.000000000000
  6 C     2 shells
 l=0 nsto= 1
    2       1.625000000000        1.000000000000
 l=1 nsto= 1
    2       1.625000000000        1.000000000000
  7 C     2 shells
 l=0 nsto= 1
    2       1.625000000000        1.000000000000
 l=1 nsto= 1
    2       1.625000000000        1.000000000000
  8 C     2 shells
 l=0 nsto= 1
    2       1.625000000000        1.000000000000
 l=1 nsto= 1
    2       1.625000000000        1.000000000000
  9 H     1 shells
 l=0 nsto= 1
    1       1.200000000000        1.000000000000
 10 H     1 shells
 l=0 nsto= 1
    1       1.200000000000        1.000000000000
 11 H     1 shells
 l=0 nsto= 1
    1       1.200000000000        1.000000000000
 12 H     1 shells
 l=0 nsto= 1
    1       1.200000000000        1.000000000000
 13 H     1 shells
 l=0 nsto= 1
    1       1.200000000000        1.000000000000
 14 H     1 shells
 l=0 nsto= 1
    1       1.200000000000        1.000000000000
 15 C     2 shells
 l=0 nsto= 1
    2       1.625000000000        1.000000000000
 l=1 nsto= 1
    2       1.625000000000        1.000000000000
 16 C     2 shells
 l=0 nsto= 1
    2       1.625000000000        1.000000000000
 l=1 nsto= 1
    2       1.625000000000        1.000000000000
 17 C     2 shells
 l=0 nsto= 1
    2       1.625000000000        1.000000000000
 l=1 nsto= 1
    2       1.625000000000        1.000000000000
 18 H     1 shells
 l=0 nsto= 1
    1       1.200000000000        1.000000000000
 19 H     1 shells
 l=0 nsto= 1
    1       1.200000000000        1.000000000000
 20 H     1 shells
 l=0 nsto= 1
    1       1.200000000000        1.000000000000
 21 H     1 shells
 l=0 nsto= 1
    1       1.200000000000        1.000000000000
 22 H     1 shells
 l=0 nsto= 1
    1       1.200000000000        1.000000000000
 23 H     1 shells
 l=0 nsto= 1
    1       1.200000000000        1.000000000000
 24 H     1 shells
 l=0 nsto= 1
    1       1.200000000000        1.000000000000
 25 H     1 shells
 l=0 nsto= 1
    1       1.200000000000        1.000000000000
 26 H     1 shells
 l=0 nsto= 1
    1       1.200000000000        1.000000000000
------------------------------------------------------------------------------
                           ORCA NDO INTEGRAL CALCULATION
------------------------------------------------------------------------------

--------------
NDO PARAMETERS
--------------

Gamma integral treatment              ... Mataga-Nishimoto
Nuclear repulsuion treatment          ... Direct (ZA*ZB/RAB)
Interaction factors:
s-s (sigma) =    1.0000
s-p (sigma) =    1.0000
s-d (sigma) =    1.0000
p-p (sigma) =    1.2670  p-p(pi) =    0.5850
p-d (sigma) =    1.0000  p-d(pi) =    1.0000
d-d (sigma) =    1.0000  d-d(pi) =    1.0000 d-d (delta) =    1.0000

fGamma parameter for Mataga-Nishimoto gamma integrals:    1.2000

--------------------------
Parameters for Element H :
--------------------------
 One-electron parameters (in eV)
  U(s)  =   -13.060000 Beta(s) =    12.000000 Neff(s) =     1.000000
 One-center electron repulsion parameters (in eV)
  G(s,s)=    12.850000
--------------------------
Parameters for Element C :
--------------------------
 One-electron parameters (in eV)
  U(s)  =   -50.870766 Beta(s) =    17.000000 Neff(s) =     2.000000
  U(p)  =   -41.599980 Beta(p) =    17.000000 Neff(p) =     2.000000 
 One-center electron repulsion parameters (in eV)
  G(s,s)=    11.110000
  G(s,p)=    11.110000 G(p,p)  =    11.110000
 Slater-Condon parameters (in eV)
 F2(p,p)=     4.5098 G1(s,p)=    6.8977
--------------------------
Parameters for Element S :
--------------------------
 One-electron parameters (in eV)
  U(s)  =   -69.509597 Beta(s) =    15.000000 Neff(s) =     2.000000
  U(p)  =   -60.725746 Beta(p) =    15.000000 Neff(p) =     4.000000 
 One-center electron repulsion parameters (in eV)
  G(s,s)=    10.090000
  G(s,p)=    10.090000 G(p,p)  =    10.090000
 Slater-Condon parameters (in eV)
 F2(p,p)=     4.5377 G1(s,p)=    3.0756

 Number of atoms                    ....   27
 Number of basis functions          ....   60

 Overlap integrals                  .... done
 One electron matrix                .... done
 Nuclear repulsion                  .... done
 Integral list                      .... done
 Electron-electron repulsion        .... done
-------------------------------------------------------------------------------
                                 ORCA SCF
-------------------------------------------------------------------------------

------------
SCF SETTINGS
------------
Hamiltonian:
 ZDO-Hamiltonian        Method          .... INDO


General Settings:
 Integral files         IntName         .... /home/mattyjones/Software/morphct/tests/output_EZ/donor_polymer/chromophores/input_orca/single/00023
 Hartree-Fock type      HFTyp           .... RHF
 Total Charge           Charge          ....    0
 Multiplicity           Mult            ....    1
 Number of Electrons    NEL             ....   62
 Basis Dimension        Dim             ....   60
 Nuclear Repulsion      ENuc            ....    299.7775510992 Eh

Convergence Acceleration:
 DIIS                   CNVDIIS         .... on
   Start iteration      DIISMaxIt       ....    12
   Startup error        DIISStart       ....  0.200000
   # of expansion vecs  DIISMaxEq       ....     5
   Bias factor          DIISBfac        ....   1.050
   Max. coefficient     DIISMaxC        ....  10.000
 Newton-Raphson         CNVNR           .... off
 SOSCF                  CNVSOSCF        .... on
   Start iteration      SOSCFMaxIt      ....   150
   Startup grad/error   SOSCFStart      ....  0.003300
 Level Shifting         CNVShift        .... on
   Level shift para.    LevelShift      ....    0.2500
   Turn off err/grad.   ShiftErr        ....    0.0010
 Zerner damping         CNVZerner       .... off
 Static damping         CNVDamp         .... on
   Fraction old density DampFac         ....    0.7000
   Max. Damping (<1)    DampMax         ....    0.9800
   Min. Damping (>=0)   DampMin         ....    0.0000
   Turn off err/grad.   DampErr         ....    0.1000
 Fernandez-Rico         CNVRico         .... off

SCF Procedure:
 Maximum # iterations   MaxIter         ....   125
 SCF integral mode      SCFMode         .... Conventional
 Integral Buffer length BufferLength    .... 1048576
 Integral index format  IndFormat       ....     0
 Integral value format  ValFormat       ....     0
 Integral Storage       Thresh          ....  1.000e-08 Eh

Convergence Tolerance:
 Convergence Check Mode ConvCheckMode   .... Total+1el-Energy
 Convergence forced     ConvForced      .... 0
 Energy Change          TolE            ....  1.000e-06 Eh
 1-El. energy change                    ....  1.000e-03 Eh
 Orbital Gradient       TolG            ....  5.000e-05
 Orbital Rotation angle TolX            ....  5.000e-05
 DIIS Error             TolErr          ....  1.000e-06


Diagonalization of the overlap matrix:
Smallest eigenvalue                        ... 1.689e-01
Time for diagonalization                   ...    0.001 sec
Threshold for overlap eigenvalues          ... 1.000e-08
Number of eigenvalues below threshold      ... 0
Time for construction of square roots      ...    0.000 sec
Total time needed                          ...    0.001 sec

-------------------------------
INITIAL GUESS: EXTENDED HUECKEL
-------------------------------
EHT matrix was read from disk
EHT matrix was diagonalized
Initial density was built
                      ------------------
                      INITIAL GUESS DONE
                      ------------------

 InCore treatment chosen:
   Memory dedicated               ...    1024 MB
   Memory needed                  ...      0 MB
   Number of tiny    integrals    ...       0
   Number of small   integrals    ...       0
   Number of regular integrals    ...    1896

--------------
SCF ITERATIONS
--------------
ITER       Energy         Delta-E        Max-DP      RMS-DP      [F,P]     Damp
  0     -5.2821839523   0.000000000000 0.04382610  0.00210161  0.0900004 0.7000
  1     -5.3043389738  -0.022155021437 0.04149001  0.00198675  0.0627869 0.7000
                               ***Turning on DIIS***
  2     -5.3206862323  -0.016347258515 0.10543077  0.00510424  0.0416783 0.0000
  3     -5.3656690733  -0.044982841014 0.01718512  0.00104836  0.0182778 0.0000
  4     -5.3546509417   0.011018131607 0.01210156  0.00074441  0.0069011 0.0000
  5     -5.3640810967  -0.009430154966 0.00837715  0.00050543  0.0040497 0.0000
  6     -5.3644464070  -0.000365310388 0.00629086  0.00036214  0.0022430 0.0000
                      *** Initiating the SOSCF procedure ***
                           *** Shutting down DIIS ***
                      *** Re-Reading the Fockian *** 
                      *** Removing any level shift *** 
ITER      Energy       Delta-E        Grad      Rot      Max-DP    RMS-DP
  7     -5.36313011   0.0013162960  0.003179  0.003179  0.003883  0.000211
  8     -5.36247607   0.0006540419  0.000906  0.002570  0.001903  0.000101
  9     -5.36248557  -0.0000095003  0.000392  0.002568  0.002327  0.000114
 10     -5.36248930  -0.0000037355  0.000039  0.000098  0.000142  0.000007
                 **** Energy Check signals convergence ****
              ***Rediagonalizing the Fockian in SOSCF/NRSCF***

               *****************************************************
               *                     SUCCESS                       *
               *           SCF CONVERGED AFTER  11 CYCLES          *
               *****************************************************


----------------
TOTAL SCF ENERGY
----------------

Total Energy       :           -5.36248935 Eh            -145.92075 eV

Components:
Nuclear Repulsion  :          299.77755110 Eh            8157.36188 eV
Electronic Energy  :         -305.14004045 Eh           -8303.28263 eV
One Electron Energy:         -565.07310014 Eh          -15376.42078 eV
Two Electron Energy:          259.93305970 Eh            7073.13815 eV


---------------
SCF CONVERGENCE
---------------

  Last Energy change         ...   -4.2830e-08  Tolerance :   1.0000e-06
  Last MAX-Density change    ...    7.1927e-05  Tolerance :   1.0000e-05
  Last RMS-Density change    ...    3.0168e-06  Tolerance :   1.0000e-06
  Last Orbital Gradient      ...    1.9567e-05  Tolerance :   5.0000e-05
  Last Orbital Rotation      ...    5.0052e-05  Tolerance :   5.0000e-05

             **** THE GBW FILE WAS UPDATED (/home/mattyjones/Software/morphct/tests/output_EZ/donor_polymer/chromophores/input_orca/single/00023.gbw) ****
             **** DENSITY FILE WAS UPDATED (/home/mattyjones/Software/morphct/tests/output_EZ/donor_polymer/chromophores/input_orca/single/00023.scfp.tmp) ****
             **** ENERGY FILE WAS UPDATED (/home/mattyjones/Software/morphct/tests/output_EZ/donor_polymer/chromophores/input_orca/single/00023.en.tmp) ****
----------------
ORBITAL ENERGIES
----------------

  NO   OCC          E(Eh)            E(eV) 
   0   2.0000      -1.560954       -42.4757 
   1   2.0000      -1.416917       -38.5563 
   2   2.0000      -1.288655       -35.0661 
   3   2.0000      -1.177246       -32.0345 
   4   2.0000      -1.109852       -30.2006 
   5   2.0000      -1.062345       -28.9079 
   6   2.0000      -0.995697       -27.0943 
   7   2.0000      -0.878832       -23.9142 
   8   2.0000      -0.847513       -23.0620 
   9   2.0000      -0.817836       -22.2545 
  10   2.0000      -0.777390       -21.1539 
  11   2.0000      -0.722904       -19.6712 
  12   2.0000      -0.708231       -19.2719 
  13   2.0000      -0.675865       -18.3912 
  14   2.0000      -0.641748       -17.4629 
  15   2.0000      -0.611522       -16.6403 
  16   2.0000      -0.599419       -16.3110 
  17   2.0000      -0.575083       -15.6488 
  18   2.0000      -0.564107       -15.3501 
  19   2.0000      -0.544589       -14.8190 
  20   2.0000      -0.539723       -14.6866 
  21   2.0000      -0.520682       -14.1685 
  22   2.0000      -0.509038       -13.8516 
  23   2.0000      -0.499712       -13.5979 
  24   2.0000      -0.484419       -13.1817 
  25   2.0000      -0.473636       -12.8883 
  26   2.0000      -0.461787       -12.5659 
  27   2.0000      -0.447806       -12.1854 
  28   2.0000      -0.435501       -11.8506 
  29   2.0000      -0.349319        -9.5054 
  30   2.0000      -0.305192        -8.3047 
  31   0.0000       0.003305         0.0899 
  32   0.0000       0.062044         1.6883 
  33   0.0000       0.071794         1.9536 
  34   0.0000       0.092327         2.5123 
  35   0.0000       0.104857         2.8533 
  36   0.0000       0.105424         2.8687 
  37   0.0000       0.124279         3.3818 
  38   0.0000       0.144689         3.9372 
  39   0.0000       0.158909         4.3241 
  40   0.0000       0.170440         4.6379 
  41   0.0000       0.175753         4.7825 
  42   0.0000       0.200664         5.4603 
  43   0.0000       0.230863         6.2821 
  44   0.0000       0.234402         6.3784 
  45   0.0000       0.236213         6.4277 
  46   0.0000       0.237573         6.4647 
  47   0.0000       0.238440         6.4883 
  48   0.0000       0.242174         6.5899 
  49   0.0000       0.246123         6.6974 
  50   0.0000       0.247508         6.7350 
  51   0.0000       0.261167         7.1067 
  52   0.0000       0.265834         7.2337 
  53   0.0000       0.293370         7.9830 
  54   0.0000       0.301252         8.1975 
  55   0.0000       0.310278         8.4431 
  56   0.0000       0.337987         9.1971 
  57   0.0000       0.352984         9.6052 
  58   0.0000       0.416939        11.3455 
  59   0.0000       0.433244        11.7892 
-------
TIMINGS
-------

Total SCF time: 0 days 0 hours 0 min 0 sec 

Total time                  ....       0.073 sec
Sum of individual times     ....       0.064 sec  ( 87.1%)

Fock matrix formation       ....       0.039 sec  ( 52.9%)
Diagonalization             ....       0.006 sec  (  7.8%)
Density matrix formation    ....       0.000 sec  (  0.7%)
Population analysis         ....       0.000 sec  (  0.0%)
Initial guess               ....       0.001 sec  (  0.9%)
Orbital Transformation      ....       0.000 sec  (  0.0%)
Orbital Orthonormalization  ....       0.000 sec  (  0.0%)
DIIS solution               ....       0.002 sec  (  2.3%)
SOSCF solution              ....       0.016 sec  ( 22.5%)

-------------------------   --------------------
FINAL SINGLE POINT ENERGY        -5.362489347757
-------------------------   --------------------


                            ***************************************
                            *     ORCA property calculations      *
                            ***************************************

                                    ---------------------
                                    Active property flags
                                    ---------------------
   (+) Dipole Moment


------------------------------------------------------------------------------
                       ORCA ELECTRIC PROPERTIES CALCULATION
------------------------------------------------------------------------------

Dipole Moment Calculation                       ... on
Quadrupole Moment Calculation                   ... off
Polarizability Calculation                      ... off
GBWName                                         ... /home/mattyjones/Software/morphct/tests/output_EZ/donor_polymer/chromophores/input_orca/single/00023.gbw
Electron density file                           ... /home/mattyjones/Software/morphct/tests/output_EZ/donor_polymer/chromophores/input_orca/single/00023.scfp.tmp
The origin for moment calculation is the CENTER OF MASS  = ( 1.773142,  0.280782 -1.002222)

-------------
DIPOLE MOMENT
-------------
                                X             Y             Z
Electronic contribution:     96.31090      24.11766     -52.86710
Nuclear contribution   :    -51.60280     -12.42230      28.33905
                        -----------------------------------------
Total Dipole Moment    :     44.70809      11.69536     -24.52805
                        -----------------------------------------
Magnitude (a.u.)       :     52.31845
Magnitude (Debye)      :    132.98294


Timings for individual modules:

Sum of individual times         ...        0.104 sec (=   0.002 min)
STO integral calculation        ...        0.018 sec (=   0.000 min)  17.6 %
SCF iterations                  ...        0.085 sec (=   0.001 min)  82.4 %
                             ****ORCA TERMINATED NORMALLY****
TOTAL RUN TIME: 0 days 0 hours 0 minutes 0 seconds 367 msec

