
                                 *****************
                                 * O   R   C   A *
                                 *****************

           --- An Ab Initio, DFT and Semiempirical electronic structure package ---

                  #######################################################
                  #                        -***-                        #
                  #  Department of molecular theory and spectroscopy    #
                  #              Directorship: Frank Neese              #
                  # Max Planck Institute for Chemical Energy Conversion #
                  #                  D-45470 Muelheim/Ruhr              #
                  #                       Germany                       #
                  #                                                     #
                  #                  All rights reserved                #
                  #                        -***-                        #
                  #######################################################


                         Program Version 3.0.3 - RELEASE   -


 With contributions from (in alphabetic order):
   Ute Becker             : Parallelization
   Dmytro Bykov           : SCF Hessian
   Dmitry Ganyushin       : Spin-Orbit,Spin-Spin,Magnetic field MRCI
   Andreas Hansen         : Spin unrestricted coupled pair/coupled cluster methods
   Dimitrios Liakos       : Extrapolation schemes; parallel MDCI
   Robert Izsak           : Overlap fitted RIJCOSX, COSX-SCS-MP3
   Christian Kollmar      : KDIIS, OOCD, Brueckner-CCSD(T), CCSD density
   Simone Kossmann        : Meta GGA functionals, TD-DFT gradient, OOMP2, MP2 Hessian
   Taras Petrenko         : DFT Hessian,TD-DFT gradient, ASA and ECA modules, normal mode analysis, Resonance Raman, ABS, FL, XAS/XES, NRVS
   Christoph Reimann      : Effective Core Potentials
   Michael Roemelt        : Restricted open shell CIS
   Christoph Riplinger    : Improved optimizer, TS searches, QM/MM, DLPNO-CCSD
   Barbara Sandhoefer     : DKH picture change effects
   Igor Schapiro          : Molecular dynamics
   Kantharuban Sivalingam : CASSCF convergence, NEVPT2
   Boris Wezisla          : Elementary symmetry handling
   Frank Wennmohs         : Technical directorship


 We gratefully acknowledge several colleagues who have allowed us to
 interface, adapt or use parts of their codes:
   Stefan Grimme, W. Hujo, H. Kruse, T. Risthaus : VdW corrections, initial TS optimization,
                                                   DFT functionals, gCP
   Ed Valeev                                     : LibInt (2-el integral package), F12 methods
   Garnet Chan, S. Sharma, R. Olivares           : DMRG
   Ulf Ekstrom                                   : XCFun DFT Library
   Mihaly Kallay                                 : mrcc  (arbitrary order and MRCC methods)
   Andreas Klamt, Michael Diedenhofen            : otool_cosmo (COSMO solvation model)
   Frank Weinhold                                : gennbo (NPA and NBO analysis)
   Christopher J. Cramer and Donald G. Truhlar   : smd solvation model


 Your calculation uses the libint2 library for the computation of 2-el integrals
 For citations please refer to: http://libint.valeyev.net

 This ORCA versions uses:
   CBLAS   interface :  Fast vector & matrix operations
   LAPACKE interface :  Fast linear algebra routines
   SCALAPACK package :  Parallel linear algebra routines


leaving
================================================================================
                                        WARNINGS
                       Please study these warnings very carefully!
================================================================================
Now building the actual basis set

WARNING: Direct SCF is incompatible with Method<>HF and Method<>DFT
  ===> : conventional SCF is chosen

WARNING: The NDO methods need Guess=HUECKEL or Guess=HCORE or Guess=MOREAD
  ===> : Guess is set to Hueckel

WARNING: The NDO methods need %rel::SOCType==1
  ===> : %rel::SOCType is set to 1

WARNING: The NDO methods cannot have frozencore=1
  ===> : %method FrozenCore=0 end


INFO   : the flag for use of LIBINT has been found!

================================================================================
                                       INPUT FILE
================================================================================
NAME = /Users/mattyjones/GoogleDrive/Boise/Code/MorphCT/tests/output_EZ/donor_polymer/chromophores/input_orca/single/00025.inp
|  1> # ================================================================
|  2> # Orca input file made by Matty Jones
|  3> # ================================================================
|  4> ! ZINDO/S 
|  5> ! NOPOP
|  6> ! NOMOPRINT
|  7> * xyz 0   1
|  8>  C  3.73973  1.82625  -1.35102
|  9>  C  2.75563  1.23101  -0.56036
| 10>  C  2.11665  2.12867  0.35077
| 11>  C  2.59863  3.43936  0.27922
| 12>  S  3.77348  3.41889  -0.89114
| 13>  H  2.56668  0.10773  -0.52887
| 14>  C  0.94228  1.66908  1.35792
| 15>  C  -0.55057  1.22711  0.69424
| 16>  C  -0.84852  -0.28109  0.00478
| 17>  H  0.14802  -0.52945  -0.52464
| 18>  H  -1.64167  -0.06278  -0.82294
| 19>  H  -0.78959  2.02033  -0.11195
| 20>  H  -1.31769  1.33794  1.55676
| 21>  H  0.71988  2.51397  2.12675
| 22>  H  1.31111  0.74404  1.96738
| 23>  C  -1.34822  -1.63268  0.76025
| 24>  C  -1.64253  -2.85331  -0.38956
| 25>  C  -3.22173  -2.98309  -0.95895
| 26>  H  -3.41479  -4.07427  -1.29506
| 27>  H  -3.36669  -2.27150  -1.86021
| 28>  H  -3.96152  -2.69972  -0.11698
| 29>  H  -1.30832  -3.86197  0.04624
| 30>  H  -1.02943  -2.59326  -1.32601
| 31>  H  -2.31962  -1.43955  1.34921
| 32>  H  -0.53019  -2.01220  1.48104
| 33>  H  4.33916  1.35874  -2.08974
| 34>  H  2.27983  4.27174  0.85290
| 35> *
| 36> 
| 37>                          ****END OF INPUT****
================================================================================

                       ****************************
                       * Single Point Calculation *
                       ****************************

---------------------------------
CARTESIAN COORDINATES (ANGSTROEM)
---------------------------------
  C      3.739730    1.826250   -1.351020
  C      2.755630    1.231010   -0.560360
  C      2.116650    2.128670    0.350770
  C      2.598630    3.439360    0.279220
  S      3.773480    3.418890   -0.891140
  H      2.566680    0.107730   -0.528870
  C      0.942280    1.669080    1.357920
  C     -0.550570    1.227110    0.694240
  C     -0.848520   -0.281090    0.004780
  H      0.148020   -0.529450   -0.524640
  H     -1.641670   -0.062780   -0.822940
  H     -0.789590    2.020330   -0.111950
  H     -1.317690    1.337940    1.556760
  H      0.719880    2.513970    2.126750
  H      1.311110    0.744040    1.967380
  C     -1.348220   -1.632680    0.760250
  C     -1.642530   -2.853310   -0.389560
  C     -3.221730   -2.983090   -0.958950
  H     -3.414790   -4.074270   -1.295060
  H     -3.366690   -2.271500   -1.860210
  H     -3.961520   -2.699720   -0.116980
  H     -1.308320   -3.861970    0.046240
  H     -1.029430   -2.593260   -1.326010
  H     -2.319620   -1.439550    1.349210
  H     -0.530190   -2.012200    1.481040
  H      4.339160    1.358740   -2.089740
  H      2.279830    4.271740    0.852900

----------------------------
CARTESIAN COORDINATES (A.U.)
----------------------------
  NO LB      ZA    FRAG    MASS        X           Y           Z
   0 C     4.0000    0    12.011          7.067065514809323          3.451112352073685         -2.553057801450290
   1 C     4.0000    0    12.011          5.207386026417419          2.326271768118400         -1.058926936404113
   2 C     4.0000    0    12.011          3.999888821364417          4.022603329494151          0.662859235995558
   3 C     4.0000    0    12.011          4.910699023391782          6.499448475963397          0.527649331113492
   4 S     6.0000    0    32.060          7.130843771829165          6.460765782002029         -1.684010546982584
   5 H     1.0000    0     1.008          4.850322273412998          0.203580196407336         -0.999419460446932
   6 C     4.0000    0    12.011          1.780651141471317          3.154104095605283          2.566096911774346
   7 C     4.0000    0    12.011         -1.040426517553024          2.318901836196107          1.311923471213490
   8 C     4.0000    0    12.011         -1.603470419154861         -0.531183118983925          0.009032890920144
   9 H     1.0000    0     1.008          0.279717262343024         -1.000515501604607         -0.991425918900446
  10 H     1.0000    0     1.008         -3.102306702274501         -0.118637006687576         -1.555131224649155
  11 H     1.0000    0     1.008         -1.492108858082881          3.817870400145122         -0.211554840692484
  12 H     1.0000    0     1.008         -2.490073229406694          2.528340183618599          2.941850056243247
  13 H     1.0000    0     1.008          1.360376049287231          4.750714808894009          4.018975055317021
  14 H     1.0000    0     1.008          2.477638831445492          1.406031832682768          3.717809401353992
  15 C     4.0000    0    12.011         -2.547766568275310         -3.085318064330549          1.436664293313632
  16 C     4.0000    0    12.011         -3.103931866749674         -5.391974475178847         -0.736161712730363
  17 C     4.0000    0    12.011         -6.088187377438114         -5.637223132839146         -1.812152876123784
  18 H     1.0000    0     1.008         -6.453017904852951         -7.699254495651338         -2.447308726996056
  19 H     1.0000    0     1.008         -6.362122077811339         -4.292512913202123         -3.515287451581651
  20 H     1.0000    0     1.008         -7.486187874051717         -5.101731438269882         -0.221060163146108
  21 H     1.0000    0     1.008         -2.472366495531852         -7.298065637419856          0.087380936432519
  22 H     1.0000    0     1.008         -1.945340774042554         -4.900551194052625         -2.505795750840919
  23 H     1.0000    0     1.008         -4.383446534766414         -2.720355256086338          2.549637397147892
  24 H     1.0000    0     1.008         -1.001913898943708         -3.802506926676342          2.798759993382730
  25 H     1.0000    0     1.008          8.199824051265738          2.567646487204162         -3.949036291100597
  26 H     1.0000    0     1.008          4.308254331897687          8.072418715316768          1.611747419621435

--------------------------------
INTERNAL COORDINATES (ANGSTROEM)
--------------------------------
 C      0   0   0   0.000000     0.000     0.000
 C      1   0   0   1.395674     0.000     0.000
 C      2   1   0   1.429772   114.102     0.000
 C      3   2   1   1.398332   113.693     0.000
 S      1   2   3   1.658050   105.479     0.000
 H      2   1   3   1.139496   123.573   188.074
 C      3   2   1   1.613914   122.962   179.588
 C      7   3   2   1.692457   118.131   291.916
 C      8   7   3   1.684873   123.381    79.738
 H      9   8   7   1.155448   103.143   323.075
 H      9   8   7   1.166990   104.062   210.892
 H      8   7   3   1.155972   106.062   316.098
 H      8   7   3   1.159611   105.479   201.179
 H      7   3   2   1.163787   110.156   169.602
 H      7   3   2   1.167551   108.754    52.751
 C      9   8   7   1.627031   127.439    87.517
 C     16   9   8   1.702533   109.578   174.777
 C     17  16   9   1.683722   116.473   266.894
 H     18  17  16   1.157979   109.097   206.864
 H     18  17  16   1.157430   109.476    87.156
 H     18  17  16   1.156071   109.573   326.871
 H     17  16   9   1.148483   108.850   142.577
 H     17  16   9   1.149111   107.211    22.846
 H     16   9   8   1.152298   110.916    54.838
 H     16   9   8   1.154447   110.205   293.446
 H      1   2   3   1.059995   127.261   180.000
 H      4   3   2   1.059999   127.207   180.000

---------------------------
INTERNAL COORDINATES (A.U.)
---------------------------
 C      0   0   0   0.000000     0.000     0.000
 C      1   0   0   2.637442     0.000     0.000
 C      2   1   0   2.701877   114.102     0.000
 C      3   2   1   2.642465   113.693     0.000
 S      1   2   3   3.133261   105.479     0.000
 H      2   1   3   2.153336   123.573   188.074
 C      3   2   1   3.049856   122.962   179.588
 C      7   3   2   3.198280   118.131   291.916
 C      8   7   3   3.183948   123.381    79.738
 H      9   8   7   2.183480   103.143   323.075
 H      9   8   7   2.205292   104.062   210.892
 H      8   7   3   2.184470   106.062   316.098
 H      8   7   3   2.191347   105.479   201.179
 H      7   3   2   2.199239   110.156   169.602
 H      7   3   2   2.206352   108.754    52.751
 C      9   8   7   3.074643   127.439    87.517
 C     16   9   8   3.217321   109.578   174.777
 C     17  16   9   3.181774   116.473   266.894
 H     18  17  16   2.188264   109.097   206.864
 H     18  17  16   2.187225   109.476    87.156
 H     18  17  16   2.184659   109.573   326.871
 H     17  16   9   2.170318   108.850   142.577
 H     17  16   9   2.171505   107.211    22.846
 H     16   9   8   2.177528   110.916    54.838
 H     16   9   8   2.181588   110.205   293.446
 H      1   2   3   2.003100   127.261   180.000
 H      4   3   2   2.003108   127.207   180.000

----------------------------
SLATER BASIS SET DIM=  60
----------------------------
  0 C     2 shells
 l=0 nsto= 1
    2       1.625000000000        1.000000000000
 l=1 nsto= 1
    2       1.625000000000        1.000000000000
  1 C     2 shells
 l=0 nsto= 1
    2       1.625000000000        1.000000000000
 l=1 nsto= 1
    2       1.625000000000        1.000000000000
  2 C     2 shells
 l=0 nsto= 1
    2       1.625000000000        1.000000000000
 l=1 nsto= 1
    2       1.625000000000        1.000000000000
  3 C     2 shells
 l=0 nsto= 1
    2       1.625000000000        1.000000000000
 l=1 nsto= 1
    2       1.625000000000        1.000000000000
  4 S     2 shells
 l=0 nsto= 1
    3       1.925000000000        1.000000000000
 l=1 nsto= 1
    3       1.925000000000        1.000000000000
  5 H     1 shells
 l=0 nsto= 1
    1       1.200000000000        1.000000000000
  6 C     2 shells
 l=0 nsto= 1
    2       1.625000000000        1.000000000000
 l=1 nsto= 1
    2       1.625000000000        1.000000000000
  7 C     2 shells
 l=0 nsto= 1
    2       1.625000000000        1.000000000000
 l=1 nsto= 1
    2       1.625000000000        1.000000000000
  8 C     2 shells
 l=0 nsto= 1
    2       1.625000000000        1.000000000000
 l=1 nsto= 1
    2       1.625000000000        1.000000000000
  9 H     1 shells
 l=0 nsto= 1
    1       1.200000000000        1.000000000000
 10 H     1 shells
 l=0 nsto= 1
    1       1.200000000000        1.000000000000
 11 H     1 shells
 l=0 nsto= 1
    1       1.200000000000        1.000000000000
 12 H     1 shells
 l=0 nsto= 1
    1       1.200000000000        1.000000000000
 13 H     1 shells
 l=0 nsto= 1
    1       1.200000000000        1.000000000000
 14 H     1 shells
 l=0 nsto= 1
    1       1.200000000000        1.000000000000
 15 C     2 shells
 l=0 nsto= 1
    2       1.625000000000        1.000000000000
 l=1 nsto= 1
    2       1.625000000000        1.000000000000
 16 C     2 shells
 l=0 nsto= 1
    2       1.625000000000        1.000000000000
 l=1 nsto= 1
    2       1.625000000000        1.000000000000
 17 C     2 shells
 l=0 nsto= 1
    2       1.625000000000        1.000000000000
 l=1 nsto= 1
    2       1.625000000000        1.000000000000
 18 H     1 shells
 l=0 nsto= 1
    1       1.200000000000        1.000000000000
 19 H     1 shells
 l=0 nsto= 1
    1       1.200000000000        1.000000000000
 20 H     1 shells
 l=0 nsto= 1
    1       1.200000000000        1.000000000000
 21 H     1 shells
 l=0 nsto= 1
    1       1.200000000000        1.000000000000
 22 H     1 shells
 l=0 nsto= 1
    1       1.200000000000        1.000000000000
 23 H     1 shells
 l=0 nsto= 1
    1       1.200000000000        1.000000000000
 24 H     1 shells
 l=0 nsto= 1
    1       1.200000000000        1.000000000000
 25 H     1 shells
 l=0 nsto= 1
    1       1.200000000000        1.000000000000
 26 H     1 shells
 l=0 nsto= 1
    1       1.200000000000        1.000000000000
------------------------------------------------------------------------------
                           ORCA NDO INTEGRAL CALCULATION
------------------------------------------------------------------------------

--------------
NDO PARAMETERS
--------------

Gamma integral treatment              ... Mataga-Nishimoto
Nuclear repulsuion treatment          ... Direct (ZA*ZB/RAB)
Interaction factors:
s-s (sigma) =    1.0000
s-p (sigma) =    1.0000
s-d (sigma) =    1.0000
p-p (sigma) =    1.2670  p-p(pi) =    0.5850
p-d (sigma) =    1.0000  p-d(pi) =    1.0000
d-d (sigma) =    1.0000  d-d(pi) =    1.0000 d-d (delta) =    1.0000

fGamma parameter for Mataga-Nishimoto gamma integrals:    1.2000

--------------------------
Parameters for Element H :
--------------------------
 One-electron parameters (in eV)
  U(s)  =   -13.060000 Beta(s) =    12.000000 Neff(s) =     1.000000
 One-center electron repulsion parameters (in eV)
  G(s,s)=    12.850000
--------------------------
Parameters for Element C :
--------------------------
 One-electron parameters (in eV)
  U(s)  =   -50.870766 Beta(s) =    17.000000 Neff(s) =     2.000000
  U(p)  =   -41.599980 Beta(p) =    17.000000 Neff(p) =     2.000000 
 One-center electron repulsion parameters (in eV)
  G(s,s)=    11.110000
  G(s,p)=    11.110000 G(p,p)  =    11.110000
 Slater-Condon parameters (in eV)
 F2(p,p)=     4.5098 G1(s,p)=    6.8977
--------------------------
Parameters for Element S :
--------------------------
 One-electron parameters (in eV)
  U(s)  =   -69.509597 Beta(s) =    15.000000 Neff(s) =     2.000000
  U(p)  =   -60.725746 Beta(p) =    15.000000 Neff(p) =     4.000000 
 One-center electron repulsion parameters (in eV)
  G(s,s)=    10.090000
  G(s,p)=    10.090000 G(p,p)  =    10.090000
 Slater-Condon parameters (in eV)
 F2(p,p)=     4.5377 G1(s,p)=    3.0756

 Number of atoms                    ....   27
 Number of basis functions          ....   60

 Overlap integrals                  .... done
 One electron matrix                .... done
 Nuclear repulsion                  .... done
 Integral list                      .... done
 Electron-electron repulsion        .... done
-------------------------------------------------------------------------------
                                 ORCA SCF
-------------------------------------------------------------------------------

------------
SCF SETTINGS
------------
Hamiltonian:
 ZDO-Hamiltonian        Method          .... INDO


General Settings:
 Integral files         IntName         .... /Users/mattyjones/GoogleDrive/Boise/Code/MorphCT/tests/output_EZ/donor_polymer/chromophores/input_orca/single/00025
 Hartree-Fock type      HFTyp           .... RHF
 Total Charge           Charge          ....    0
 Multiplicity           Mult            ....    1
 Number of Electrons    NEL             ....   62
 Basis Dimension        Dim             ....   60
 Nuclear Repulsion      ENuc            ....    294.0306106690 Eh

Convergence Acceleration:
 DIIS                   CNVDIIS         .... on
   Start iteration      DIISMaxIt       ....    12
   Startup error        DIISStart       ....  0.200000
   # of expansion vecs  DIISMaxEq       ....     5
   Bias factor          DIISBfac        ....   1.050
   Max. coefficient     DIISMaxC        ....  10.000
 Newton-Raphson         CNVNR           .... off
 SOSCF                  CNVSOSCF        .... on
   Start iteration      SOSCFMaxIt      ....   150
   Startup grad/error   SOSCFStart      ....  0.003300
 Level Shifting         CNVShift        .... on
   Level shift para.    LevelShift      ....    0.2500
   Turn off err/grad.   ShiftErr        ....    0.0010
 Zerner damping         CNVZerner       .... off
 Static damping         CNVDamp         .... on
   Fraction old density DampFac         ....    0.7000
   Max. Damping (<1)    DampMax         ....    0.9800
   Min. Damping (>=0)   DampMin         ....    0.0000
   Turn off err/grad.   DampErr         ....    0.1000
 Fernandez-Rico         CNVRico         .... off

SCF Procedure:
 Maximum # iterations   MaxIter         ....   125
 SCF integral mode      SCFMode         .... Conventional
 Integral Buffer length BufferLength    .... 1048576
 Integral index format  IndFormat       ....     0
 Integral value format  ValFormat       ....     0
 Integral Storage       Thresh          ....  1.000e-08 Eh

Convergence Tolerance:
 Convergence Check Mode ConvCheckMode   .... Total+1el-Energy
 Energy Change          TolE            ....  1.000e-06 Eh
 1-El. energy change                    ....  1.000e-03 Eh
 Orbital Gradient       TolG            ....  5.000e-05
 Orbital Rotation angle TolX            ....  5.000e-05
 DIIS Error             TolErr          ....  1.000e-06


Diagonalization of the overlap matrix:
Smallest eigenvalue                        ... 1.697e-01
Time for diagonalization                   ...    0.001 sec
Threshold for overlap eigenvalues          ... 1.000e-08
Number of eigenvalues below threshold      ... 0
Time for construction of square roots      ...    0.000 sec
Total time needed                          ...    0.002 sec

-------------------------------
INITIAL GUESS: EXTENDED HUECKEL
-------------------------------
EHT matrix was read from disk
EHT matrix was diagonalized
Initial density was built
                      ------------------
                      INITIAL GUESS DONE
                      ------------------

 InCore treatment chosen:
   Memory dedicated               ...    1024 MB
   Memory needed                  ...      0 MB
   Number of tiny    integrals    ...       0
   Number of small   integrals    ...       0
   Number of regular integrals    ...    1896

--------------
SCF ITERATIONS
--------------
ITER       Energy         Delta-E        Max-DP      RMS-DP      [F,P]     Damp
  0     -6.8706351571   0.000000000000 0.03936731  0.00203865  0.1066454 0.7000
  1     -6.8914660633  -0.020830906184 0.03634589  0.00191902  0.0738978 0.7000
                               ***Turning on DIIS***
  2     -6.9068827599  -0.015416696592 0.08962442  0.00492151  0.0485022 0.0000
  3     -6.9471557634  -0.040273003506 0.01809388  0.00101499  0.0215607 0.0000
  4     -6.9394274725   0.007728290890 0.01043072  0.00069456  0.0060419 0.0000
  5     -6.9481146862  -0.008687213672 0.00692792  0.00046996  0.0034260 0.0000
  6     -6.9495804514  -0.001465765235 0.00451072  0.00033429  0.0017045 0.0000
                      *** Initiating the SOSCF procedure ***
                           *** Shutting down DIIS ***
                      *** Re-Reading the Fockian *** 
                      *** Removing any level shift *** 
ITER      Energy       Delta-E        Grad      Rot      Max-DP    RMS-DP
  7     -6.94742185   0.0021586050  0.003008  0.003008  0.004420  0.000314
  8     -6.94643551   0.0009863412  0.000244  0.000642  0.000485  0.000033
                 **** Energy Check signals convergence ****
              ***Rediagonalizing the Fockian in SOSCF/NRSCF***

               *****************************************************
               *                     SUCCESS                       *
               *           SCF CONVERGED AFTER   9 CYCLES          *
               *****************************************************


----------------
TOTAL SCF ENERGY
----------------

Total Energy       :           -6.94643634 Eh            -189.02214 eV

Components:
Nuclear Repulsion  :          294.03061067 Eh            8000.97968 eV
Electronic Energy  :         -300.97704701 Eh           -8190.00182 eV

One Electron Energy:         -556.73280703 Eh          -15149.46986 eV
Two Electron Energy:          255.75576002 Eh            6959.46804 eV


---------------
SCF CONVERGENCE
---------------

  Last Energy change         ...   -8.3231e-07  Tolerance :   1.0000e-06
  Last MAX-Density change    ...    4.5895e-04  Tolerance :   1.0000e-05
  Last RMS-Density change    ...    2.6628e-05  Tolerance :   1.0000e-06
  Last Orbital Gradient      ...    1.3733e-04  Tolerance :   5.0000e-05
  Last Orbital Rotation      ...    5.5728e-04  Tolerance :   5.0000e-05

             **** THE GBW FILE WAS UPDATED (/Users/mattyjones/GoogleDrive/Boise/Code/MorphCT/tests/output_EZ/donor_polymer/chromophores/input_orca/single/00025.gbw) ****
             **** DENSITY FILE WAS UPDATED (/Users/mattyjones/GoogleDrive/Boise/Code/MorphCT/tests/output_EZ/donor_polymer/chromophores/input_orca/single/00025.scfp.tmp) ****
             **** ENERGY FILE WAS UPDATED (/Users/mattyjones/GoogleDrive/Boise/Code/MorphCT/tests/output_EZ/donor_polymer/chromophores/input_orca/single/00025.en.tmp) ****
----------------
ORBITAL ENERGIES
----------------

  NO   OCC          E(Eh)            E(eV) 
   0   2.0000      -1.556961       -42.3671 
   1   2.0000      -1.399302       -38.0769 
   2   2.0000      -1.295649       -35.2564 
   3   2.0000      -1.179107       -32.0851 
   4   2.0000      -1.109817       -30.1997 
   5   2.0000      -1.047328       -28.4992 
   6   2.0000      -0.968934       -26.3660 
   7   2.0000      -0.890431       -24.2299 
   8   2.0000      -0.863466       -23.4961 
   9   2.0000      -0.830116       -22.5886 
  10   2.0000      -0.781838       -21.2749 
  11   2.0000      -0.724207       -19.7067 
  12   2.0000      -0.696920       -18.9641 
  13   2.0000      -0.666107       -18.1257 
  14   2.0000      -0.647409       -17.6169 
  15   2.0000      -0.613119       -16.6838 
  16   2.0000      -0.589381       -16.0379 
  17   2.0000      -0.582957       -15.8631 
  18   2.0000      -0.576183       -15.6787 
  19   2.0000      -0.557011       -15.1570 
  20   2.0000      -0.521873       -14.2009 
  21   2.0000      -0.518981       -14.1222 
  22   2.0000      -0.507577       -13.8119 
  23   2.0000      -0.494150       -13.4465 
  24   2.0000      -0.492153       -13.3922 
  25   2.0000      -0.480245       -13.0681 
  26   2.0000      -0.465105       -12.6561 
  27   2.0000      -0.454546       -12.3688 
  28   2.0000      -0.438828       -11.9411 
  29   2.0000      -0.356225        -9.6934 
  30   2.0000      -0.304549        -8.2872 
  31   0.0000       0.008077         0.2198 
  32   0.0000       0.066701         1.8150 
  33   0.0000       0.075200         2.0463 
  34   0.0000       0.087377         2.3776 
  35   0.0000       0.106033         2.8853 
  36   0.0000       0.107500         2.9252 
  37   0.0000       0.124274         3.3817 
  38   0.0000       0.142845         3.8870 
  39   0.0000       0.155729         4.2376 
  40   0.0000       0.166044         4.5183 
  41   0.0000       0.173528         4.7219 
  42   0.0000       0.205058         5.5799 
  43   0.0000       0.233240         6.3468 
  44   0.0000       0.234517         6.3815 
  45   0.0000       0.235922         6.4198 
  46   0.0000       0.238795         6.4979 
  47   0.0000       0.240403         6.5417 
  48   0.0000       0.242213         6.5909 
  49   0.0000       0.243597         6.6286 
  50   0.0000       0.246252         6.7009 
  51   0.0000       0.259712         7.0671 
  52   0.0000       0.267116         7.2686 
  53   0.0000       0.276854         7.5336 
  54   0.0000       0.307940         8.3795 
  55   0.0000       0.310491         8.4489 
  56   0.0000       0.343593         9.3496 
  57   0.0000       0.361550         9.8383 
  58   0.0000       0.411975        11.2104 
  59   0.0000       0.430377        11.7112 
-------
TIMINGS
-------

Total SCF time: 0 days 0 hours 0 min 0 sec 

Total time                  ....       0.066 sec
Sum of individual times     ....       0.058 sec  ( 86.7%)

Fock matrix formation       ....       0.043 sec  ( 64.1%)
Diagonalization             ....       0.006 sec  (  8.9%)
Density matrix formation    ....       0.001 sec  (  1.3%)
Population analysis         ....       0.000 sec  (  0.0%)
Initial guess               ....       0.001 sec  (  0.8%)
Orbital Transformation      ....       0.000 sec  (  0.0%)
Orbital Orthonormalization  ....       0.000 sec  (  0.0%)
DIIS solution               ....       0.007 sec  ( 10.0%)
SOSCF solution              ....       0.001 sec  (  1.6%)

-------------------------   --------------------
FINAL SINGLE POINT ENERGY        -6.946436337515
-------------------------   --------------------


                            ***************************************
                            *     ORCA property calculations      *
                            ***************************************

                                    ---------------------
                                    Active property flags
                                    ---------------------
   (+) Dipole Moment


------------------------------------------------------------------------------
                       ORCA ELECTRIC PROPERTIES CALCULATION
------------------------------------------------------------------------------

Dipole Moment Calculation                       ... on
Quadrupole Moment Calculation                   ... off
Polarizability Calculation                      ... off
GBWName                                         ... /Users/mattyjones/GoogleDrive/Boise/Code/MorphCT/tests/output_EZ/donor_polymer/chromophores/input_orca/single/00025.gbw
Electron density file                           ... /Users/mattyjones/GoogleDrive/Boise/Code/MorphCT/tests/output_EZ/donor_polymer/chromophores/input_orca/single/00025.scfp.tmp

-------------
DIPOLE MOMENT
-------------
                                X             Y             Z
Electronic contribution:    101.88474      91.43142     -20.05456
Nuclear contribution   :    -54.95871     -49.11091      10.47117
                        -----------------------------------------
Total Dipole Moment    :     46.92603      42.32050      -9.58338
                        -----------------------------------------
Magnitude (a.u.)       :     63.91337
Magnitude (Debye)      :    162.45488


Timings for individual modules:

Sum of individual times         ...        0.131 sec (=   0.002 min)
STO integral calculation        ...        0.035 sec (=   0.001 min)  27.0 %
SCF iterations                  ...        0.096 sec (=   0.002 min)  73.0 %
                             ****ORCA TERMINATED NORMALLY****
TOTAL RUN TIME: 0 days 0 hours 0 minutes 0 seconds 492 msec

