
                                 *****************
                                 * O   R   C   A *
                                 *****************

           --- An Ab Initio, DFT and Semiempirical electronic structure package ---

                  #######################################################
                  #                        -***-                        #
                  #  Department of molecular theory and spectroscopy    #
                  #              Directorship: Frank Neese              #
                  # Max Planck Institute for Chemical Energy Conversion #
                  #                  D-45470 Muelheim/Ruhr              #
                  #                       Germany                       #
                  #                                                     #
                  #                  All rights reserved                #
                  #                        -***-                        #
                  #######################################################


                         Program Version 3.0.3 - RELEASE   -


 With contributions from (in alphabetic order):
   Ute Becker             : Parallelization
   Dmytro Bykov           : SCF Hessian
   Dmitry Ganyushin       : Spin-Orbit,Spin-Spin,Magnetic field MRCI
   Andreas Hansen         : Spin unrestricted coupled pair/coupled cluster methods
   Dimitrios Liakos       : Extrapolation schemes; parallel MDCI
   Robert Izsak           : Overlap fitted RIJCOSX, COSX-SCS-MP3
   Christian Kollmar      : KDIIS, OOCD, Brueckner-CCSD(T), CCSD density
   Simone Kossmann        : Meta GGA functionals, TD-DFT gradient, OOMP2, MP2 Hessian
   Taras Petrenko         : DFT Hessian,TD-DFT gradient, ASA and ECA modules, normal mode analysis, Resonance Raman, ABS, FL, XAS/XES, NRVS
   Christoph Reimann      : Effective Core Potentials
   Michael Roemelt        : Restricted open shell CIS
   Christoph Riplinger    : Improved optimizer, TS searches, QM/MM, DLPNO-CCSD
   Barbara Sandhoefer     : DKH picture change effects
   Igor Schapiro          : Molecular dynamics
   Kantharuban Sivalingam : CASSCF convergence, NEVPT2
   Boris Wezisla          : Elementary symmetry handling
   Frank Wennmohs         : Technical directorship


 We gratefully acknowledge several colleagues who have allowed us to
 interface, adapt or use parts of their codes:
   Stefan Grimme, W. Hujo, H. Kruse, T. Risthaus : VdW corrections, initial TS optimization,
                                                   DFT functionals, gCP
   Ed Valeev                                     : LibInt (2-el integral package), F12 methods
   Garnet Chan, S. Sharma, R. Olivares           : DMRG
   Ulf Ekstrom                                   : XCFun DFT Library
   Mihaly Kallay                                 : mrcc  (arbitrary order and MRCC methods)
   Andreas Klamt, Michael Diedenhofen            : otool_cosmo (COSMO solvation model)
   Frank Weinhold                                : gennbo (NPA and NBO analysis)
   Christopher J. Cramer and Donald G. Truhlar   : smd solvation model


 Your calculation uses the libint2 library for the computation of 2-el integrals
 For citations please refer to: http://libint.valeyev.net

 This ORCA versions uses:
   CBLAS   interface :  Fast vector & matrix operations
   LAPACKE interface :  Fast linear algebra routines
   SCALAPACK package :  Parallel linear algebra routines


leaving
================================================================================
                                        WARNINGS
                       Please study these warnings very carefully!
================================================================================
Now building the actual basis set

WARNING: Direct SCF is incompatible with Method<>HF and Method<>DFT
  ===> : conventional SCF is chosen

WARNING: The NDO methods need Guess=HUECKEL or Guess=HCORE or Guess=MOREAD
  ===> : Guess is set to Hueckel

WARNING: The NDO methods need %rel::SOCType==1
  ===> : %rel::SOCType is set to 1

WARNING: The NDO methods cannot have frozencore=1
  ===> : %method FrozenCore=0 end


INFO   : the flag for use of LIBINT has been found!

================================================================================
                                       INPUT FILE
================================================================================
NAME = /Users/mattyjones/GoogleDrive/Boise/Code/MorphCT/tests/output_EZ/donor_polymer/chromophores/input_orca/single/00028.inp
|  1> # ================================================================
|  2> # Orca input file made by Matty Jones
|  3> # ================================================================
|  4> ! ZINDO/S 
|  5> ! NOPOP
|  6> ! NOMOPRINT
|  7> * xyz 0   1
|  8>  C  -1.91157  -4.11563  -1.69027
|  9>  C  -1.17792  -3.15797  -0.98845
| 10>  C  -1.98128  -2.20685  -0.28540
| 11>  C  -3.35621  -2.41454  -0.43282
| 12>  S  -3.50350  -3.74531  -1.41149
| 13>  H  -0.03594  -3.14847  -0.93401
| 14>  C  -1.28802  -1.03256  0.59675
| 15>  C  0.04847  -0.05280  0.19588
| 16>  C  0.35351  0.99613  1.50907
| 17>  H  0.46482  0.32473  2.44639
| 18>  H  -0.60729  1.63262  1.63347
| 19>  H  0.96174  -0.72650  0.03398
| 20>  H  -0.18790  0.56204  -0.74047
| 21>  H  -2.08644  -0.18053  0.71883
| 22>  H  -1.01876  -1.47105  1.64247
| 23>  C  1.62578  2.01016  1.44580
| 24>  C  2.49400  2.02403  0.00042
| 25>  C  1.89739  3.15010  -1.09701
| 26>  H  1.28139  3.95541  -0.53923
| 27>  H  1.22213  2.61201  -1.86751
| 28>  H  2.78478  3.65486  -1.64288
| 29>  H  3.58944  2.29389  0.24064
| 30>  H  2.45957  0.98017  -0.48205
| 31>  H  2.37635  1.71772  2.28091
| 32>  H  1.26690  3.09159  1.65262
| 33>  H  -1.53123  -4.91182  -2.27765
| 34>  H  -4.14020  -1.84141  -0.00799
| 35> *
| 36> 
| 37>                          ****END OF INPUT****
================================================================================

                       ****************************
                       * Single Point Calculation *
                       ****************************

---------------------------------
CARTESIAN COORDINATES (ANGSTROEM)
---------------------------------
  C     -1.911570   -4.115630   -1.690270
  C     -1.177920   -3.157970   -0.988450
  C     -1.981280   -2.206850   -0.285400
  C     -3.356210   -2.414540   -0.432820
  S     -3.503500   -3.745310   -1.411490
  H     -0.035940   -3.148470   -0.934010
  C     -1.288020   -1.032560    0.596750
  C      0.048470   -0.052800    0.195880
  C      0.353510    0.996130    1.509070
  H      0.464820    0.324730    2.446390
  H     -0.607290    1.632620    1.633470
  H      0.961740   -0.726500    0.033980
  H     -0.187900    0.562040   -0.740470
  H     -2.086440   -0.180530    0.718830
  H     -1.018760   -1.471050    1.642470
  C      1.625780    2.010160    1.445800
  C      2.494000    2.024030    0.000420
  C      1.897390    3.150100   -1.097010
  H      1.281390    3.955410   -0.539230
  H      1.222130    2.612010   -1.867510
  H      2.784780    3.654860   -1.642880
  H      3.589440    2.293890    0.240640
  H      2.459570    0.980170   -0.482050
  H      2.376350    1.717720    2.280910
  H      1.266900    3.091590    1.652620
  H     -1.531230   -4.911820   -2.277650
  H     -4.140200   -1.841410   -0.007990

----------------------------
CARTESIAN COORDINATES (A.U.)
----------------------------
  NO LB      ZA    FRAG    MASS        X           Y           Z
   0 C     4.0000    0    12.011         -3.612343785819847         -7.777413568550322         -3.194147392383074
   1 C     4.0000    0    12.011         -2.225946207668521         -5.967698439139295         -1.867899797074461
   2 C     4.0000    0    12.011         -3.744076594615497         -4.170342118644115         -0.539327838621125
   3 C     4.0000    0    12.011         -6.342317747927844         -4.562819339398219         -0.817911265283796
   4 S     6.0000    0    32.060         -6.620655510193105         -7.077610186636603         -2.667329540768507
   5 H     1.0000    0     1.008         -0.067916757253130         -5.949746040867043         -1.765023106343788
   6 C     4.0000    0    12.011         -2.434005055013250         -1.951255616841727          1.127694070417507
   7 C     4.0000    0    12.011          0.091595025711163         -0.099777539871042          0.370159555112495
   8 C     4.0000    0    12.011          0.668037085602502          1.882412893782976          2.851729016916543
   9 H     1.0000    0     1.008          0.878382501569276          0.613650767468248          4.623007116763611
  10 H     1.0000    0     1.008         -1.147611783869037          3.085204680762514          3.086810947976347
  11 H     1.0000    0     1.008          1.817425212037425         -1.372886036293789          0.064212894030644
  12 H     1.0000    0     1.008         -0.355079540563803          1.062101676309100         -1.399285510384669
  13 H     1.0000    0     1.008         -3.942800194858656         -0.341152258956804          1.358391836846613
  14 H     1.0000    0     1.008         -1.925177396193614         -2.779881629304857          3.103818483181638
  15 C     4.0000    0    12.011          3.072278954006492          3.798651885363143          2.732166044423346
  16 C     4.0000    0    12.011          4.712976977999602          3.824862386840632          0.000793684976247
  17 C     4.0000    0    12.011          3.585547469240844          5.952826294465335         -2.073048466172952
  18 H     1.0000    0     1.008          2.421476170745353          7.474641647373458         -1.018997023194357
  19 H     1.0000    0     1.008          2.309491000049179          4.935983559063649         -3.529082452359277
  20 H     1.0000    0     1.008          5.262471543221223          6.906684457823427         -3.104593270896546
  21 H     1.0000    0     1.008          6.783058574142298          4.334823881340620          0.454743696866810
  22 H     1.0000    0     1.008          4.647913707208692          1.852252864685593         -0.910942482856739
  23 H     1.0000    0     1.008          4.490650698343766          3.246020374759212          4.310295236122322
  24 H     1.0000    0     1.008          2.394094039064834          5.842258418369602          3.122999203440939
  25 H     1.0000    0     1.008         -2.893605348044238         -9.281994619117082         -4.304134728925739
  26 H     1.0000    0     1.008         -7.823844139660767         -3.479760600263932         -0.015098911810031

--------------------------------
INTERNAL COORDINATES (ANGSTROEM)
--------------------------------
 C      0   0   0   0.000000     0.000     0.000
 C      1   0   0   1.395674     0.000     0.000
 C      2   1   0   1.429789   114.102     0.000
 C      3   2   1   1.398321   113.693     0.000
 S      1   2   3   1.658040   105.480     0.000
 H      2   1   3   1.143316   123.689   177.480
 C      3   2   1   1.624117   120.545   179.315
 C      7   3   2   1.704943   128.491    43.360
 C      8   7   3   1.708149   108.187   180.783
 H      9   8   7   1.158334   106.459    53.930
 H      9   8   7   1.159194   105.763   299.068
 H      8   7   3   1.146362   108.662   299.107
 H      8   7   3   1.144836   109.821    61.167
 H      7   3   2   1.174024   106.913   158.790
 H      7   3   2   1.165463   108.297   276.915
 C      9   8   7   1.628168   119.480   177.100
 C     16   9   8   1.686156   116.154     4.563
 C     17  16   9   1.681764   112.471    89.771
 H     18  17  16   1.157194   109.894    20.927
 H     18  17  16   1.157233   109.277   260.746
 H     18  17  16   1.157678   109.130   140.868
 H     17  16   9   1.153481   108.204   209.519
 H     17  16   9   1.150481   109.670   328.483
 H     16   9   8   1.160295   108.696   244.398
 H     16   9   8   1.158042   109.421   126.798
 H      1   2   3   1.059996   127.260   180.000
 H      4   3   2   1.059999   127.206   180.000

---------------------------
INTERNAL COORDINATES (A.U.)
---------------------------
 C      0   0   0   0.000000     0.000     0.000
 C      1   0   0   2.637442     0.000     0.000
 C      2   1   0   2.701909   114.102     0.000
 C      3   2   1   2.642443   113.693     0.000
 S      1   2   3   3.133241   105.480     0.000
 H      2   1   3   2.160555   123.689   177.480
 C      3   2   1   3.069136   120.545   179.315
 C      7   3   2   3.221876   128.491    43.360
 C      8   7   3   3.227933   108.187   180.783
 H      9   8   7   2.188933   106.459    53.930
 H      9   8   7   2.190560   105.763   299.068
 H      8   7   3   2.166310   108.662   299.107
 H      8   7   3   2.163427   109.821    61.167
 H      7   3   2   2.218584   106.913   158.790
 H      7   3   2   2.202406   108.297   276.915
 C      9   8   7   3.076792   119.480   177.100
 C     16   9   8   3.186373   116.154     4.563
 C     17  16   9   3.178073   112.471    89.771
 H     18  17  16   2.186780   109.894    20.927
 H     18  17  16   2.186853   109.277   260.746
 H     18  17  16   2.187694   109.130   140.868
 H     17  16   9   2.179764   108.204   209.519
 H     17  16   9   2.174094   109.670   328.483
 H     16   9   8   2.192640   108.696   244.398
 H     16   9   8   2.188381   109.421   126.798
 H      1   2   3   2.003103   127.260   180.000
 H      4   3   2   2.003109   127.206   180.000

----------------------------
SLATER BASIS SET DIM=  60
----------------------------
  0 C     2 shells
 l=0 nsto= 1
    2       1.625000000000        1.000000000000
 l=1 nsto= 1
    2       1.625000000000        1.000000000000
  1 C     2 shells
 l=0 nsto= 1
    2       1.625000000000        1.000000000000
 l=1 nsto= 1
    2       1.625000000000        1.000000000000
  2 C     2 shells
 l=0 nsto= 1
    2       1.625000000000        1.000000000000
 l=1 nsto= 1
    2       1.625000000000        1.000000000000
  3 C     2 shells
 l=0 nsto= 1
    2       1.625000000000        1.000000000000
 l=1 nsto= 1
    2       1.625000000000        1.000000000000
  4 S     2 shells
 l=0 nsto= 1
    3       1.925000000000        1.000000000000
 l=1 nsto= 1
    3       1.925000000000        1.000000000000
  5 H     1 shells
 l=0 nsto= 1
    1       1.200000000000        1.000000000000
  6 C     2 shells
 l=0 nsto= 1
    2       1.625000000000        1.000000000000
 l=1 nsto= 1
    2       1.625000000000        1.000000000000
  7 C     2 shells
 l=0 nsto= 1
    2       1.625000000000        1.000000000000
 l=1 nsto= 1
    2       1.625000000000        1.000000000000
  8 C     2 shells
 l=0 nsto= 1
    2       1.625000000000        1.000000000000
 l=1 nsto= 1
    2       1.625000000000        1.000000000000
  9 H     1 shells
 l=0 nsto= 1
    1       1.200000000000        1.000000000000
 10 H     1 shells
 l=0 nsto= 1
    1       1.200000000000        1.000000000000
 11 H     1 shells
 l=0 nsto= 1
    1       1.200000000000        1.000000000000
 12 H     1 shells
 l=0 nsto= 1
    1       1.200000000000        1.000000000000
 13 H     1 shells
 l=0 nsto= 1
    1       1.200000000000        1.000000000000
 14 H     1 shells
 l=0 nsto= 1
    1       1.200000000000        1.000000000000
 15 C     2 shells
 l=0 nsto= 1
    2       1.625000000000        1.000000000000
 l=1 nsto= 1
    2       1.625000000000        1.000000000000
 16 C     2 shells
 l=0 nsto= 1
    2       1.625000000000        1.000000000000
 l=1 nsto= 1
    2       1.625000000000        1.000000000000
 17 C     2 shells
 l=0 nsto= 1
    2       1.625000000000        1.000000000000
 l=1 nsto= 1
    2       1.625000000000        1.000000000000
 18 H     1 shells
 l=0 nsto= 1
    1       1.200000000000        1.000000000000
 19 H     1 shells
 l=0 nsto= 1
    1       1.200000000000        1.000000000000
 20 H     1 shells
 l=0 nsto= 1
    1       1.200000000000        1.000000000000
 21 H     1 shells
 l=0 nsto= 1
    1       1.200000000000        1.000000000000
 22 H     1 shells
 l=0 nsto= 1
    1       1.200000000000        1.000000000000
 23 H     1 shells
 l=0 nsto= 1
    1       1.200000000000        1.000000000000
 24 H     1 shells
 l=0 nsto= 1
    1       1.200000000000        1.000000000000
 25 H     1 shells
 l=0 nsto= 1
    1       1.200000000000        1.000000000000
 26 H     1 shells
 l=0 nsto= 1
    1       1.200000000000        1.000000000000
------------------------------------------------------------------------------
                           ORCA NDO INTEGRAL CALCULATION
------------------------------------------------------------------------------

--------------
NDO PARAMETERS
--------------

Gamma integral treatment              ... Mataga-Nishimoto
Nuclear repulsuion treatment          ... Direct (ZA*ZB/RAB)
Interaction factors:
s-s (sigma) =    1.0000
s-p (sigma) =    1.0000
s-d (sigma) =    1.0000
p-p (sigma) =    1.2670  p-p(pi) =    0.5850
p-d (sigma) =    1.0000  p-d(pi) =    1.0000
d-d (sigma) =    1.0000  d-d(pi) =    1.0000 d-d (delta) =    1.0000

fGamma parameter for Mataga-Nishimoto gamma integrals:    1.2000

--------------------------
Parameters for Element H :
--------------------------
 One-electron parameters (in eV)
  U(s)  =   -13.060000 Beta(s) =    12.000000 Neff(s) =     1.000000
 One-center electron repulsion parameters (in eV)
  G(s,s)=    12.850000
--------------------------
Parameters for Element C :
--------------------------
 One-electron parameters (in eV)
  U(s)  =   -50.870766 Beta(s) =    17.000000 Neff(s) =     2.000000
  U(p)  =   -41.599980 Beta(p) =    17.000000 Neff(p) =     2.000000 
 One-center electron repulsion parameters (in eV)
  G(s,s)=    11.110000
  G(s,p)=    11.110000 G(p,p)  =    11.110000
 Slater-Condon parameters (in eV)
 F2(p,p)=     4.5098 G1(s,p)=    6.8977
--------------------------
Parameters for Element S :
--------------------------
 One-electron parameters (in eV)
  U(s)  =   -69.509597 Beta(s) =    15.000000 Neff(s) =     2.000000
  U(p)  =   -60.725746 Beta(p) =    15.000000 Neff(p) =     4.000000 
 One-center electron repulsion parameters (in eV)
  G(s,s)=    10.090000
  G(s,p)=    10.090000 G(p,p)  =    10.090000
 Slater-Condon parameters (in eV)
 F2(p,p)=     4.5377 G1(s,p)=    3.0756

 Number of atoms                    ....   27
 Number of basis functions          ....   60

 Overlap integrals                  .... done
 One electron matrix                .... done
 Nuclear repulsion                  .... done
 Integral list                      .... done
 Electron-electron repulsion        .... done
-------------------------------------------------------------------------------
                                 ORCA SCF
-------------------------------------------------------------------------------

------------
SCF SETTINGS
------------
Hamiltonian:
 ZDO-Hamiltonian        Method          .... INDO


General Settings:
 Integral files         IntName         .... /Users/mattyjones/GoogleDrive/Boise/Code/MorphCT/tests/output_EZ/donor_polymer/chromophores/input_orca/single/00028
 Hartree-Fock type      HFTyp           .... RHF
 Total Charge           Charge          ....    0
 Multiplicity           Mult            ....    1
 Number of Electrons    NEL             ....   62
 Basis Dimension        Dim             ....   60
 Nuclear Repulsion      ENuc            ....    293.8750474675 Eh

Convergence Acceleration:
 DIIS                   CNVDIIS         .... on
   Start iteration      DIISMaxIt       ....    12
   Startup error        DIISStart       ....  0.200000
   # of expansion vecs  DIISMaxEq       ....     5
   Bias factor          DIISBfac        ....   1.050
   Max. coefficient     DIISMaxC        ....  10.000
 Newton-Raphson         CNVNR           .... off
 SOSCF                  CNVSOSCF        .... on
   Start iteration      SOSCFMaxIt      ....   150
   Startup grad/error   SOSCFStart      ....  0.003300
 Level Shifting         CNVShift        .... on
   Level shift para.    LevelShift      ....    0.2500
   Turn off err/grad.   ShiftErr        ....    0.0010
 Zerner damping         CNVZerner       .... off
 Static damping         CNVDamp         .... on
   Fraction old density DampFac         ....    0.7000
   Max. Damping (<1)    DampMax         ....    0.9800
   Min. Damping (>=0)   DampMin         ....    0.0000
   Turn off err/grad.   DampErr         ....    0.1000
 Fernandez-Rico         CNVRico         .... off

SCF Procedure:
 Maximum # iterations   MaxIter         ....   125
 SCF integral mode      SCFMode         .... Conventional
 Integral Buffer length BufferLength    .... 1048576
 Integral index format  IndFormat       ....     0
 Integral value format  ValFormat       ....     0
 Integral Storage       Thresh          ....  1.000e-08 Eh

Convergence Tolerance:
 Convergence Check Mode ConvCheckMode   .... Total+1el-Energy
 Energy Change          TolE            ....  1.000e-06 Eh
 1-El. energy change                    ....  1.000e-03 Eh
 Orbital Gradient       TolG            ....  5.000e-05
 Orbital Rotation angle TolX            ....  5.000e-05
 DIIS Error             TolErr          ....  1.000e-06


Diagonalization of the overlap matrix:
Smallest eigenvalue                        ... 1.698e-01
Time for diagonalization                   ...    0.001 sec
Threshold for overlap eigenvalues          ... 1.000e-08
Number of eigenvalues below threshold      ... 0
Time for construction of square roots      ...    0.000 sec
Total time needed                          ...    0.002 sec

-------------------------------
INITIAL GUESS: EXTENDED HUECKEL
-------------------------------
EHT matrix was read from disk
EHT matrix was diagonalized
Initial density was built
                      ------------------
                      INITIAL GUESS DONE
                      ------------------

 InCore treatment chosen:
   Memory dedicated               ...    1024 MB
   Memory needed                  ...      0 MB
   Number of tiny    integrals    ...       0
   Number of small   integrals    ...       0
   Number of regular integrals    ...    1896

--------------
SCF ITERATIONS
--------------
ITER       Energy         Delta-E        Max-DP      RMS-DP      [F,P]     Damp
  0     -6.8154250339   0.000000000000 0.04130822  0.00203354  0.1121596 0.7000
  1     -6.8362327298  -0.020807695889 0.03921965  0.00191505  0.0767554 0.7000
                               ***Turning on DIIS***
  2     -6.8516275820  -0.015394852193 0.10011004  0.00491445  0.0465050 0.0000
  3     -6.8921749385  -0.040547356479 0.01864967  0.00102356  0.0212039 0.0000
  4     -6.8845818830   0.007593055463 0.01106018  0.00070271  0.0068669 0.0000
  5     -6.8930309311  -0.008449048102 0.00779926  0.00047528  0.0039556 0.0000
  6     -6.8941941519  -0.001163220800 0.00585814  0.00033677  0.0021205 0.0000
                      *** Initiating the SOSCF procedure ***
                           *** Shutting down DIIS ***
                      *** Re-Reading the Fockian *** 
                      *** Removing any level shift *** 
ITER      Energy       Delta-E        Grad      Rot      Max-DP    RMS-DP
  7     -6.89213737   0.0020567844  0.003016  0.003016  0.003478  0.000188
  8     -6.89114099   0.0009963815  0.000800  0.002192  0.001730  0.000087
  9     -6.89114812  -0.0000071364  0.000352  0.002135  0.001930  0.000092
 10     -6.89115072  -0.0000026011  0.000028  0.000068  0.000111  0.000006
                 **** Energy Check signals convergence ****
              ***Rediagonalizing the Fockian in SOSCF/NRSCF***

               *****************************************************
               *                     SUCCESS                       *
               *           SCF CONVERGED AFTER  11 CYCLES          *
               *****************************************************


----------------
TOTAL SCF ENERGY
----------------

Total Energy       :           -6.89115075 Eh            -187.51775 eV

Components:
Nuclear Repulsion  :          293.87504747 Eh            7996.74659 eV
Electronic Energy  :         -300.76619821 Eh           -8184.26433 eV

One Electron Energy:         -556.32250503 Eh          -15138.30498 eV
Two Electron Energy:          255.55630681 Eh            6954.04064 eV


---------------
SCF CONVERGENCE
---------------

  Last Energy change         ...   -2.3163e-08  Tolerance :   1.0000e-06
  Last MAX-Density change    ...    4.2680e-05  Tolerance :   1.0000e-05
  Last RMS-Density change    ...    1.8660e-06  Tolerance :   1.0000e-06
  Last Orbital Gradient      ...    8.5465e-06  Tolerance :   5.0000e-05
  Last Orbital Rotation      ...    2.0632e-05  Tolerance :   5.0000e-05

             **** THE GBW FILE WAS UPDATED (/Users/mattyjones/GoogleDrive/Boise/Code/MorphCT/tests/output_EZ/donor_polymer/chromophores/input_orca/single/00028.gbw) ****
             **** DENSITY FILE WAS UPDATED (/Users/mattyjones/GoogleDrive/Boise/Code/MorphCT/tests/output_EZ/donor_polymer/chromophores/input_orca/single/00028.scfp.tmp) ****
             **** ENERGY FILE WAS UPDATED (/Users/mattyjones/GoogleDrive/Boise/Code/MorphCT/tests/output_EZ/donor_polymer/chromophores/input_orca/single/00028.en.tmp) ****
----------------
ORBITAL ENERGIES
----------------

  NO   OCC          E(Eh)            E(eV) 
   0   2.0000      -1.554862       -42.3099 
   1   2.0000      -1.411055       -38.3968 
   2   2.0000      -1.286628       -35.0109 
   3   2.0000      -1.171762       -31.8853 
   4   2.0000      -1.115926       -30.3659 
   5   2.0000      -1.042465       -28.3669 
   6   2.0000      -0.954520       -25.9738 
   7   2.0000      -0.926054       -25.1992 
   8   2.0000      -0.835802       -22.7433 
   9   2.0000      -0.825787       -22.4708 
  10   2.0000      -0.777217       -21.1491 
  11   2.0000      -0.733542       -19.9607 
  12   2.0000      -0.708130       -19.2692 
  13   2.0000      -0.671047       -18.2601 
  14   2.0000      -0.653869       -17.7927 
  15   2.0000      -0.609606       -16.5882 
  16   2.0000      -0.583040       -15.8653 
  17   2.0000      -0.576807       -15.6957 
  18   2.0000      -0.566797       -15.4233 
  19   2.0000      -0.544202       -14.8085 
  20   2.0000      -0.540313       -14.7027 
  21   2.0000      -0.529102       -14.3976 
  22   2.0000      -0.505712       -13.7611 
  23   2.0000      -0.490182       -13.3385 
  24   2.0000      -0.488362       -13.2890 
  25   2.0000      -0.477431       -12.9916 
  26   2.0000      -0.464714       -12.6455 
  27   2.0000      -0.458735       -12.4828 
  28   2.0000      -0.438727       -11.9384 
  29   2.0000      -0.357392        -9.7251 
  30   2.0000      -0.305167        -8.3040 
  31   0.0000       0.007569         0.2060 
  32   0.0000       0.068195         1.8557 
  33   0.0000       0.074636         2.0309 
  34   0.0000       0.089558         2.4370 
  35   0.0000       0.102742         2.7957 
  36   0.0000       0.107391         2.9223 
  37   0.0000       0.125577         3.4171 
  38   0.0000       0.139948         3.8082 
  39   0.0000       0.158562         4.3147 
  40   0.0000       0.164084         4.4650 
  41   0.0000       0.168420         4.5829 
  42   0.0000       0.202644         5.5142 
  43   0.0000       0.230207         6.2642 
  44   0.0000       0.237294         6.4571 
  45   0.0000       0.237852         6.4723 
  46   0.0000       0.238918         6.5013 
  47   0.0000       0.242488         6.5984 
  48   0.0000       0.244089         6.6420 
  49   0.0000       0.247401         6.7321 
  50   0.0000       0.257558         7.0085 
  51   0.0000       0.263052         7.1580 
  52   0.0000       0.267789         7.2869 
  53   0.0000       0.270735         7.3671 
  54   0.0000       0.300174         8.1682 
  55   0.0000       0.309911         8.4331 
  56   0.0000       0.338806         9.2194 
  57   0.0000       0.354338         9.6420 
  58   0.0000       0.415227        11.2989 
  59   0.0000       0.430066        11.7027 
-------
TIMINGS
-------

Total SCF time: 0 days 0 hours 0 min 0 sec 

Total time                  ....       0.103 sec
Sum of individual times     ....       0.071 sec  ( 68.5%)

Fock matrix formation       ....       0.054 sec  ( 52.0%)
Diagonalization             ....       0.005 sec  (  5.3%)
Density matrix formation    ....       0.001 sec  (  0.8%)
Population analysis         ....       0.000 sec  (  0.0%)
Initial guess               ....       0.001 sec  (  0.8%)
Orbital Transformation      ....       0.000 sec  (  0.0%)
Orbital Orthonormalization  ....       0.000 sec  (  0.0%)
DIIS solution               ....       0.008 sec  (  7.3%)
SOSCF solution              ....       0.002 sec  (  2.3%)

-------------------------   --------------------
FINAL SINGLE POINT ENERGY        -6.891150746634
-------------------------   --------------------


                            ***************************************
                            *     ORCA property calculations      *
                            ***************************************

                                    ---------------------
                                    Active property flags
                                    ---------------------
   (+) Dipole Moment


------------------------------------------------------------------------------
                       ORCA ELECTRIC PROPERTIES CALCULATION
------------------------------------------------------------------------------

Dipole Moment Calculation                       ... on
Quadrupole Moment Calculation                   ... off
Polarizability Calculation                      ... off
GBWName                                         ... /Users/mattyjones/GoogleDrive/Boise/Code/MorphCT/tests/output_EZ/donor_polymer/chromophores/input_orca/single/00028.gbw
Electron density file                           ... /Users/mattyjones/GoogleDrive/Boise/Code/MorphCT/tests/output_EZ/donor_polymer/chromophores/input_orca/single/00028.scfp.tmp

-------------
DIPOLE MOMENT
-------------
                                X             Y             Z
Electronic contribution:    -91.88145    -102.11143     -35.07952
Nuclear contribution   :     49.19400      55.13070      18.66107
                        -----------------------------------------
Total Dipole Moment    :    -42.68745     -46.98073     -16.41845
                        -----------------------------------------
Magnitude (a.u.)       :     65.56655
Magnitude (Debye)      :    166.65694


Timings for individual modules:

Sum of individual times         ...        0.172 sec (=   0.003 min)
STO integral calculation        ...        0.037 sec (=   0.001 min)  21.5 %
SCF iterations                  ...        0.135 sec (=   0.002 min)  78.5 %
                             ****ORCA TERMINATED NORMALLY****
TOTAL RUN TIME: 0 days 0 hours 0 minutes 0 seconds 473 msec

