
                                 *****************
                                 * O   R   C   A *
                                 *****************

           --- An Ab Initio, DFT and Semiempirical electronic structure package ---

                  #######################################################
                  #                        -***-                        #
                  #  Department of molecular theory and spectroscopy    #
                  #              Directorship: Frank Neese              #
                  # Max Planck Institute for Chemical Energy Conversion #
                  #                  D-45470 Muelheim/Ruhr              #
                  #                       Germany                       #
                  #                                                     #
                  #                  All rights reserved                #
                  #                        -***-                        #
                  #######################################################


                         Program Version 3.0.3 - RELEASE   -


 With contributions from (in alphabetic order):
   Ute Becker             : Parallelization
   Dmytro Bykov           : SCF Hessian
   Dmitry Ganyushin       : Spin-Orbit,Spin-Spin,Magnetic field MRCI
   Andreas Hansen         : Spin unrestricted coupled pair/coupled cluster methods
   Dimitrios Liakos       : Extrapolation schemes; parallel MDCI
   Robert Izsak           : Overlap fitted RIJCOSX, COSX-SCS-MP3
   Christian Kollmar      : KDIIS, OOCD, Brueckner-CCSD(T), CCSD density
   Simone Kossmann        : Meta GGA functionals, TD-DFT gradient, OOMP2, MP2 Hessian
   Taras Petrenko         : DFT Hessian,TD-DFT gradient, ASA and ECA modules, normal mode analysis, Resonance Raman, ABS, FL, XAS/XES, NRVS
   Christoph Reimann      : Effective Core Potentials
   Michael Roemelt        : Restricted open shell CIS
   Christoph Riplinger    : Improved optimizer, TS searches, QM/MM, DLPNO-CCSD
   Barbara Sandhoefer     : DKH picture change effects
   Igor Schapiro          : Molecular dynamics
   Kantharuban Sivalingam : CASSCF convergence, NEVPT2
   Boris Wezisla          : Elementary symmetry handling
   Frank Wennmohs         : Technical directorship


 We gratefully acknowledge several colleagues who have allowed us to
 interface, adapt or use parts of their codes:
   Stefan Grimme, W. Hujo, H. Kruse, T. Risthaus : VdW corrections, initial TS optimization,
                                                   DFT functionals, gCP
   Ed Valeev                                     : LibInt (2-el integral package), F12 methods
   Garnet Chan, S. Sharma, R. Olivares           : DMRG
   Ulf Ekstrom                                   : XCFun DFT Library
   Mihaly Kallay                                 : mrcc  (arbitrary order and MRCC methods)
   Andreas Klamt, Michael Diedenhofen            : otool_cosmo (COSMO solvation model)
   Frank Weinhold                                : gennbo (NPA and NBO analysis)
   Christopher J. Cramer and Donald G. Truhlar   : smd solvation model


 Your calculation uses the libint2 library for the computation of 2-el integrals
 For citations please refer to: http://libint.valeyev.net

 This ORCA versions uses:
   CBLAS   interface :  Fast vector & matrix operations
   LAPACKE interface :  Fast linear algebra routines
   SCALAPACK package :  Parallel linear algebra routines


leaving
================================================================================
                                        WARNINGS
                       Please study these warnings very carefully!
================================================================================
Now building the actual basis set

WARNING: Direct SCF is incompatible with Method<>HF and Method<>DFT
  ===> : conventional SCF is chosen

WARNING: The NDO methods need Guess=HUECKEL or Guess=HCORE or Guess=MOREAD
  ===> : Guess is set to Hueckel

WARNING: The NDO methods need %rel::SOCType==1
  ===> : %rel::SOCType is set to 1

WARNING: The NDO methods cannot have frozencore=1
  ===> : %method FrozenCore=0 end


INFO   : the flag for use of LIBINT has been found!

================================================================================
                                       INPUT FILE
================================================================================
NAME = /Users/mattyjones/GoogleDrive/Boise/Code/MorphCT/tests/output_EZ/donor_polymer/chromophores/input_orca/single/00020.inp
|  1> # ================================================================
|  2> # Orca input file made by Matty Jones
|  3> # ================================================================
|  4> ! ZINDO/S 
|  5> ! NOPOP
|  6> ! NOMOPRINT
|  7> * xyz 0   1
|  8>  C  -2.18512  -4.21897  0.22381
|  9>  C  -1.48237  -3.03050  0.42767
| 10>  C  -2.17265  -2.07561  1.23758
| 11>  C  -3.42681  -2.51228  1.67546
| 12>  S  -3.61300  -4.03543  1.04635
| 13>  H  -0.44639  -2.81070  0.00053
| 14>  C  -1.54676  -0.63136  1.60594
| 15>  C  -0.92516  0.48351  0.47100
| 16>  C  0.66696  0.53043  -0.13164
| 17>  H  1.39588  0.42566  0.75495
| 18>  H  0.80705  -0.35675  -0.85400
| 19>  H  -1.60029  0.37212  -0.46069
| 20>  H  -1.10558  1.52446  0.94129
| 21>  H  -2.34439  -0.00414  2.17775
| 22>  H  -0.65763  -0.80666  2.34592
| 23>  C  0.92495  1.94185  -0.91877
| 24>  C  2.32189  2.12117  -1.85727
| 25>  C  3.70015  2.70988  -1.09392
| 26>  H  4.63448  2.36604  -1.68600
| 27>  H  3.75124  2.29647  -0.01514
| 28>  H  3.66486  3.86644  -1.06924
| 29>  H  2.57439  1.09370  -2.31334
| 30>  H  2.06300  2.86142  -2.70643
| 31>  H  0.02627  2.14304  -1.61989
| 32>  H  0.96157  2.78856  -0.12600
| 33>  H  -1.87203  -5.06133  -0.33834
| 34>  H  -4.11452  -1.98101  2.28242
| 35> *
| 36> 
| 37>                          ****END OF INPUT****
================================================================================

                       ****************************
                       * Single Point Calculation *
                       ****************************

---------------------------------
CARTESIAN COORDINATES (ANGSTROEM)
---------------------------------
  C     -2.185120   -4.218970    0.223810
  C     -1.482370   -3.030500    0.427670
  C     -2.172650   -2.075610    1.237580
  C     -3.426810   -2.512280    1.675460
  S     -3.613000   -4.035430    1.046350
  H     -0.446390   -2.810700    0.000530
  C     -1.546760   -0.631360    1.605940
  C     -0.925160    0.483510    0.471000
  C      0.666960    0.530430   -0.131640
  H      1.395880    0.425660    0.754950
  H      0.807050   -0.356750   -0.854000
  H     -1.600290    0.372120   -0.460690
  H     -1.105580    1.524460    0.941290
  H     -2.344390   -0.004140    2.177750
  H     -0.657630   -0.806660    2.345920
  C      0.924950    1.941850   -0.918770
  C      2.321890    2.121170   -1.857270
  C      3.700150    2.709880   -1.093920
  H      4.634480    2.366040   -1.686000
  H      3.751240    2.296470   -0.015140
  H      3.664860    3.866440   -1.069240
  H      2.574390    1.093700   -2.313340
  H      2.063000    2.861420   -2.706430
  H      0.026270    2.143040   -1.619890
  H      0.961570    2.788560   -0.126000
  H     -1.872030   -5.061330   -0.338340
  H     -4.114520   -1.981010    2.282420

----------------------------
CARTESIAN COORDINATES (A.U.)
----------------------------
  NO LB      ZA    FRAG    MASS        X           Y           Z
   0 C     4.0000    0    12.011         -4.129278369754005         -7.972697867229742          0.422939606032915
   1 C     4.0000    0    12.011         -2.801273329140846         -5.726815048848353          0.808179175694102
   2 C     4.0000    0    12.011         -4.105713484864007         -3.922334460828290          2.338687268818262
   3 C     4.0000    0    12.011         -6.475732412982684         -4.747521171727683          3.166160548339700
   4 S     6.0000    0    32.060         -6.827580521857482         -7.625857532609836          1.977314940228502
   5 H     1.0000    0     1.008         -0.843554848921108         -5.311453244612462          0.001001554850978
   6 C     4.0000    0    12.011         -2.922952794904035         -1.193097491912521          3.034786787509495
   7 C     4.0000    0    12.011         -1.748299030058585          0.913701483012264          0.890061009076909
   8 C     4.0000    0    12.011          1.260371742280118          1.002367433215849         -0.248763548269394
   9 H     1.0000    0     1.008          2.637830915817997          0.804380826164920          1.426648744803849
  10 H     1.0000    0     1.008          1.525103476381146         -0.674159798276407         -1.613826118368749
  11 H     1.0000    0     1.008         -3.024109834852840          0.703204888954776         -0.870577932636181
  12 H     1.0000    0     1.008         -2.089243419140657          2.880811902117591          1.778780312598735
  13 H     1.0000    0     1.008         -4.430255051103644         -0.007823466194434          4.115351088147006
  14 H     1.0000    0     1.008         -1.242740597450633         -1.524366483188917          4.433146332088543
  15 C     4.0000    0    12.011          1.747902187570462          3.669564693154983         -1.736223680062828
  16 C     4.0000    0    12.011          4.387736213090415          4.008430383489742         -3.509731656747923
  17 C     4.0000    0    12.011          6.992270154428719          5.120931055790521         -2.067209212419136
  18 H     1.0000    0     1.008          8.757897973135362          4.471167621903038         -3.186078261791230
  19 H     1.0000    0     1.008          7.088816262610757          4.339699374766137         -0.028610453667568
  20 H     1.0000    0     1.008          6.925581719162638          7.306512713238484         -2.020570771433959
  21 H     1.0000    0     1.008          4.864892061905532          2.066793472669673         -4.371579054645388
  22 H     1.0000    0     1.008          3.898505014279543          5.407300154124948         -5.114411500628493
  23 H     1.0000    0     1.008          0.049643105538111          4.049758694038600         -3.061148467077696
  24 H     1.0000    0     1.008          1.817103958594658          5.269614708007445         -0.238105492874078
  25 H     1.0000    0     1.008         -3.537624014484601         -9.564527573399648         -0.639369940150916
  26 H     1.0000    0     1.008         -7.775315972541668         -3.743566368559339          4.313148722584543

--------------------------------
INTERNAL COORDINATES (ANGSTROEM)
--------------------------------
 C      0   0   0   0.000000     0.000     0.000
 C      1   0   0   1.395664     0.000     0.000
 C      2   1   0   1.429775   114.102     0.000
 C      3   2   1   1.398334   113.693     0.000
 S      1   2   3   1.658041   105.480     0.000
 H      2   1   3   1.141935   124.477   179.919
 C      3   2   1   1.616566   122.604   179.890
 C      7   3   2   1.708043   124.934    52.050
 C      8   7   3   1.703004   126.395   272.938
 H      9   8   7   1.152538   108.454   313.764
 H      9   8   7   1.152613   108.312    72.628
 H      8   7   3   1.155965   105.076    35.454
 H      8   7   3   1.156417   105.102   150.263
 H      7   3   2   1.164725   109.137   174.158
 H      7   3   2   1.169980   107.728   289.872
 C      9   8   7   1.636533   109.959   192.949
 C     16   9   8   1.692448   119.223   191.390
 C     17  16   9   1.681928   117.502   270.939
 H     18  17  16   1.158342   108.971   156.227
 H     18  17  16   1.156410   109.540    36.361
 H     18  17  16   1.157361   109.540   275.875
 H     17  16   9   1.152150   107.813    33.418
 H     17  16   9   1.155884   106.880   150.744
 H     16   9   8   1.157442   108.594   313.708
 H     16   9   8   1.160493   107.798    70.654
 H      1   2   3   1.060004   127.261   180.000
 H      4   3   2   1.059997   127.206   180.000

---------------------------
INTERNAL COORDINATES (A.U.)
---------------------------
 C      0   0   0   0.000000     0.000     0.000
 C      1   0   0   2.637422     0.000     0.000
 C      2   1   0   2.701883   114.102     0.000
 C      3   2   1   2.642468   113.693     0.000
 S      1   2   3   3.133244   105.480     0.000
 H      2   1   3   2.157944   124.477   179.919
 C      3   2   1   3.054867   122.604   179.890
 C      7   3   2   3.227733   124.934    52.050
 C      8   7   3   3.218211   126.395   272.938
 H      9   8   7   2.177980   108.454   313.764
 H      9   8   7   2.178124   108.312    72.628
 H      8   7   3   2.184457   105.076    35.454
 H      8   7   3   2.185312   105.102   150.263
 H      7   3   2   2.201012   109.137   174.158
 H      7   3   2   2.210941   107.728   289.872
 C      9   8   7   3.092598   109.959   192.949
 C     16   9   8   3.198263   119.223   191.390
 C     17  16   9   3.178384   117.502   270.939
 H     18  17  16   2.188950   108.971   156.227
 H     18  17  16   2.185298   109.540    36.361
 H     18  17  16   2.187096   109.540   275.875
 H     17  16   9   2.177249   107.813    33.418
 H     17  16   9   2.184303   106.880   150.744
 H     16   9   8   2.187249   108.594   313.708
 H     16   9   8   2.193013   107.798    70.654
 H      1   2   3   2.003117   127.261   180.000
 H      4   3   2   2.003104   127.206   180.000

----------------------------
SLATER BASIS SET DIM=  60
----------------------------
  0 C     2 shells
 l=0 nsto= 1
    2       1.625000000000        1.000000000000
 l=1 nsto= 1
    2       1.625000000000        1.000000000000
  1 C     2 shells
 l=0 nsto= 1
    2       1.625000000000        1.000000000000
 l=1 nsto= 1
    2       1.625000000000        1.000000000000
  2 C     2 shells
 l=0 nsto= 1
    2       1.625000000000        1.000000000000
 l=1 nsto= 1
    2       1.625000000000        1.000000000000
  3 C     2 shells
 l=0 nsto= 1
    2       1.625000000000        1.000000000000
 l=1 nsto= 1
    2       1.625000000000        1.000000000000
  4 S     2 shells
 l=0 nsto= 1
    3       1.925000000000        1.000000000000
 l=1 nsto= 1
    3       1.925000000000        1.000000000000
  5 H     1 shells
 l=0 nsto= 1
    1       1.200000000000        1.000000000000
  6 C     2 shells
 l=0 nsto= 1
    2       1.625000000000        1.000000000000
 l=1 nsto= 1
    2       1.625000000000        1.000000000000
  7 C     2 shells
 l=0 nsto= 1
    2       1.625000000000        1.000000000000
 l=1 nsto= 1
    2       1.625000000000        1.000000000000
  8 C     2 shells
 l=0 nsto= 1
    2       1.625000000000        1.000000000000
 l=1 nsto= 1
    2       1.625000000000        1.000000000000
  9 H     1 shells
 l=0 nsto= 1
    1       1.200000000000        1.000000000000
 10 H     1 shells
 l=0 nsto= 1
    1       1.200000000000        1.000000000000
 11 H     1 shells
 l=0 nsto= 1
    1       1.200000000000        1.000000000000
 12 H     1 shells
 l=0 nsto= 1
    1       1.200000000000        1.000000000000
 13 H     1 shells
 l=0 nsto= 1
    1       1.200000000000        1.000000000000
 14 H     1 shells
 l=0 nsto= 1
    1       1.200000000000        1.000000000000
 15 C     2 shells
 l=0 nsto= 1
    2       1.625000000000        1.000000000000
 l=1 nsto= 1
    2       1.625000000000        1.000000000000
 16 C     2 shells
 l=0 nsto= 1
    2       1.625000000000        1.000000000000
 l=1 nsto= 1
    2       1.625000000000        1.000000000000
 17 C     2 shells
 l=0 nsto= 1
    2       1.625000000000        1.000000000000
 l=1 nsto= 1
    2       1.625000000000        1.000000000000
 18 H     1 shells
 l=0 nsto= 1
    1       1.200000000000        1.000000000000
 19 H     1 shells
 l=0 nsto= 1
    1       1.200000000000        1.000000000000
 20 H     1 shells
 l=0 nsto= 1
    1       1.200000000000        1.000000000000
 21 H     1 shells
 l=0 nsto= 1
    1       1.200000000000        1.000000000000
 22 H     1 shells
 l=0 nsto= 1
    1       1.200000000000        1.000000000000
 23 H     1 shells
 l=0 nsto= 1
    1       1.200000000000        1.000000000000
 24 H     1 shells
 l=0 nsto= 1
    1       1.200000000000        1.000000000000
 25 H     1 shells
 l=0 nsto= 1
    1       1.200000000000        1.000000000000
 26 H     1 shells
 l=0 nsto= 1
    1       1.200000000000        1.000000000000
------------------------------------------------------------------------------
                           ORCA NDO INTEGRAL CALCULATION
------------------------------------------------------------------------------

--------------
NDO PARAMETERS
--------------

Gamma integral treatment              ... Mataga-Nishimoto
Nuclear repulsuion treatment          ... Direct (ZA*ZB/RAB)
Interaction factors:
s-s (sigma) =    1.0000
s-p (sigma) =    1.0000
s-d (sigma) =    1.0000
p-p (sigma) =    1.2670  p-p(pi) =    0.5850
p-d (sigma) =    1.0000  p-d(pi) =    1.0000
d-d (sigma) =    1.0000  d-d(pi) =    1.0000 d-d (delta) =    1.0000

fGamma parameter for Mataga-Nishimoto gamma integrals:    1.2000

--------------------------
Parameters for Element H :
--------------------------
 One-electron parameters (in eV)
  U(s)  =   -13.060000 Beta(s) =    12.000000 Neff(s) =     1.000000
 One-center electron repulsion parameters (in eV)
  G(s,s)=    12.850000
--------------------------
Parameters for Element C :
--------------------------
 One-electron parameters (in eV)
  U(s)  =   -50.870766 Beta(s) =    17.000000 Neff(s) =     2.000000
  U(p)  =   -41.599980 Beta(p) =    17.000000 Neff(p) =     2.000000 
 One-center electron repulsion parameters (in eV)
  G(s,s)=    11.110000
  G(s,p)=    11.110000 G(p,p)  =    11.110000
 Slater-Condon parameters (in eV)
 F2(p,p)=     4.5098 G1(s,p)=    6.8977
--------------------------
Parameters for Element S :
--------------------------
 One-electron parameters (in eV)
  U(s)  =   -69.509597 Beta(s) =    15.000000 Neff(s) =     2.000000
  U(p)  =   -60.725746 Beta(p) =    15.000000 Neff(p) =     4.000000 
 One-center electron repulsion parameters (in eV)
  G(s,s)=    10.090000
  G(s,p)=    10.090000 G(p,p)  =    10.090000
 Slater-Condon parameters (in eV)
 F2(p,p)=     4.5377 G1(s,p)=    3.0756

 Number of atoms                    ....   27
 Number of basis functions          ....   60

 Overlap integrals                  .... done
 One electron matrix                .... done
 Nuclear repulsion                  .... done
 Integral list                      .... done
 Electron-electron repulsion        .... done
-------------------------------------------------------------------------------
                                 ORCA SCF
-------------------------------------------------------------------------------

------------
SCF SETTINGS
------------
Hamiltonian:
 ZDO-Hamiltonian        Method          .... INDO


General Settings:
 Integral files         IntName         .... /Users/mattyjones/GoogleDrive/Boise/Code/MorphCT/tests/output_EZ/donor_polymer/chromophores/input_orca/single/00020
 Hartree-Fock type      HFTyp           .... RHF
 Total Charge           Charge          ....    0
 Multiplicity           Mult            ....    1
 Number of Electrons    NEL             ....   62
 Basis Dimension        Dim             ....   60
 Nuclear Repulsion      ENuc            ....    289.0543779136 Eh

Convergence Acceleration:
 DIIS                   CNVDIIS         .... on
   Start iteration      DIISMaxIt       ....    12
   Startup error        DIISStart       ....  0.200000
   # of expansion vecs  DIISMaxEq       ....     5
   Bias factor          DIISBfac        ....   1.050
   Max. coefficient     DIISMaxC        ....  10.000
 Newton-Raphson         CNVNR           .... off
 SOSCF                  CNVSOSCF        .... on
   Start iteration      SOSCFMaxIt      ....   150
   Startup grad/error   SOSCFStart      ....  0.003300
 Level Shifting         CNVShift        .... on
   Level shift para.    LevelShift      ....    0.2500
   Turn off err/grad.   ShiftErr        ....    0.0010
 Zerner damping         CNVZerner       .... off
 Static damping         CNVDamp         .... on
   Fraction old density DampFac         ....    0.7000
   Max. Damping (<1)    DampMax         ....    0.9800
   Min. Damping (>=0)   DampMin         ....    0.0000
   Turn off err/grad.   DampErr         ....    0.1000
 Fernandez-Rico         CNVRico         .... off

SCF Procedure:
 Maximum # iterations   MaxIter         ....   125
 SCF integral mode      SCFMode         .... Conventional
 Integral Buffer length BufferLength    .... 1048576
 Integral index format  IndFormat       ....     0
 Integral value format  ValFormat       ....     0
 Integral Storage       Thresh          ....  1.000e-08 Eh

Convergence Tolerance:
 Convergence Check Mode ConvCheckMode   .... Total+1el-Energy
 Energy Change          TolE            ....  1.000e-06 Eh
 1-El. energy change                    ....  1.000e-03 Eh
 Orbital Gradient       TolG            ....  5.000e-05
 Orbital Rotation angle TolX            ....  5.000e-05
 DIIS Error             TolErr          ....  1.000e-06


Diagonalization of the overlap matrix:
Smallest eigenvalue                        ... 1.698e-01
Time for diagonalization                   ...    0.002 sec
Threshold for overlap eigenvalues          ... 1.000e-08
Number of eigenvalues below threshold      ... 0
Time for construction of square roots      ...    0.000 sec
Total time needed                          ...    0.003 sec

-------------------------------
INITIAL GUESS: EXTENDED HUECKEL
-------------------------------
EHT matrix was read from disk
EHT matrix was diagonalized
Initial density was built
                      ------------------
                      INITIAL GUESS DONE
                      ------------------

 InCore treatment chosen:
   Memory dedicated               ...    1024 MB
   Memory needed                  ...      0 MB
   Number of tiny    integrals    ...       0
   Number of small   integrals    ...       0
   Number of regular integrals    ...    1896

--------------
SCF ITERATIONS
--------------
ITER       Energy         Delta-E        Max-DP      RMS-DP      [F,P]     Damp
  0     -8.1388347752   0.000000000000 0.04182367  0.00203227  0.0893636 0.7000
  1     -8.1596254435  -0.020790668273 0.03965930  0.00191309  0.0600717 0.7000
                               ***Turning on DIIS***
  2     -8.1750178442  -0.015392400657 0.10114213  0.00490833  0.0383315 0.0000
  3     -8.2153114594  -0.040293615269 0.01550220  0.00101488  0.0201218 0.0000
  4     -8.2077454969   0.007565962572 0.01157283  0.00069361  0.0071550 0.0000
  5     -8.2162467339  -0.008501237050 0.00810553  0.00046985  0.0041551 0.0000
  6     -8.2176378937  -0.001391159802 0.00600952  0.00033334  0.0022390 0.0000
                      *** Initiating the SOSCF procedure ***
                           *** Shutting down DIIS ***
                      *** Re-Reading the Fockian *** 
                      *** Removing any level shift *** 
ITER      Energy       Delta-E        Grad      Rot      Max-DP    RMS-DP
  7     -8.21550171   0.0021361852  0.002997  0.002997  0.003572  0.000187
  8     -8.21452264   0.0009790643  0.000798  0.002190  0.001783  0.000087
  9     -8.21452980  -0.0000071577  0.000352  0.002135  0.001990  0.000091
 10     -8.21453241  -0.0000026106  0.000027  0.000052  0.000104  0.000005
                 **** Energy Check signals convergence ****
              ***Rediagonalizing the Fockian in SOSCF/NRSCF***

               *****************************************************
               *                     SUCCESS                       *
               *           SCF CONVERGED AFTER  11 CYCLES          *
               *****************************************************


----------------
TOTAL SCF ENERGY
----------------

Total Energy       :           -8.21453243 Eh            -223.52879 eV

Components:
Nuclear Repulsion  :          289.05437791 Eh            7865.56950 eV
Electronic Energy  :         -297.26891035 Eh           -8089.09829 eV

One Electron Energy:         -549.33692393 Eh          -14948.21765 eV
Two Electron Energy:          252.06801358 Eh            6859.11936 eV


---------------
SCF CONVERGENCE
---------------

  Last Energy change         ...   -2.1403e-08  Tolerance :   1.0000e-06
  Last MAX-Density change    ...    3.5227e-05  Tolerance :   1.0000e-05
  Last RMS-Density change    ...    1.6344e-06  Tolerance :   1.0000e-06
  Last Orbital Gradient      ...    6.6555e-06  Tolerance :   5.0000e-05
  Last Orbital Rotation      ...    1.8591e-05  Tolerance :   5.0000e-05

             **** THE GBW FILE WAS UPDATED (/Users/mattyjones/GoogleDrive/Boise/Code/MorphCT/tests/output_EZ/donor_polymer/chromophores/input_orca/single/00020.gbw) ****
             **** DENSITY FILE WAS UPDATED (/Users/mattyjones/GoogleDrive/Boise/Code/MorphCT/tests/output_EZ/donor_polymer/chromophores/input_orca/single/00020.scfp.tmp) ****
             **** ENERGY FILE WAS UPDATED (/Users/mattyjones/GoogleDrive/Boise/Code/MorphCT/tests/output_EZ/donor_polymer/chromophores/input_orca/single/00020.en.tmp) ****
----------------
ORBITAL ENERGIES
----------------

  NO   OCC          E(Eh)            E(eV) 
   0   2.0000      -1.555682       -42.3323 
   1   2.0000      -1.394056       -37.9342 
   2   2.0000      -1.288183       -35.0532 
   3   2.0000      -1.189978       -32.3810 
   4   2.0000      -1.109891       -30.2017 
   5   2.0000      -1.033592       -28.1255 
   6   2.0000      -0.972030       -26.4503 
   7   2.0000      -0.890418       -24.2295 
   8   2.0000      -0.863373       -23.4936 
   9   2.0000      -0.832144       -22.6438 
  10   2.0000      -0.774884       -21.0857 
  11   2.0000      -0.732006       -19.9189 
  12   2.0000      -0.685116       -18.6430 
  13   2.0000      -0.671540       -18.2735 
  14   2.0000      -0.656026       -17.8514 
  15   2.0000      -0.609974       -16.5982 
  16   2.0000      -0.583837       -15.8870 
  17   2.0000      -0.578942       -15.7538 
  18   2.0000      -0.573731       -15.6120 
  19   2.0000      -0.556431       -15.1413 
  20   2.0000      -0.531242       -14.4558 
  21   2.0000      -0.516747       -14.0614 
  22   2.0000      -0.507803       -13.8180 
  23   2.0000      -0.489839       -13.3292 
  24   2.0000      -0.485150       -13.2016 
  25   2.0000      -0.482056       -13.1174 
  26   2.0000      -0.467010       -12.7080 
  27   2.0000      -0.465779       -12.6745 
  28   2.0000      -0.440746       -11.9933 
  29   2.0000      -0.357011        -9.7148 
  30   2.0000      -0.305243        -8.3061 
  31   0.0000       0.007470         0.2033 
  32   0.0000       0.062873         1.7109 
  33   0.0000       0.075129         2.0444 
  34   0.0000       0.087807         2.3894 
  35   0.0000       0.104288         2.8378 
  36   0.0000       0.107369         2.9217 
  37   0.0000       0.123652         3.3647 
  38   0.0000       0.141355         3.8465 
  39   0.0000       0.156592         4.2611 
  40   0.0000       0.165751         4.5103 
  41   0.0000       0.172286         4.6881 
  42   0.0000       0.204382         5.5615 
  43   0.0000       0.233046         6.3415 
  44   0.0000       0.235836         6.4174 
  45   0.0000       0.236857         6.4452 
  46   0.0000       0.239915         6.5284 
  47   0.0000       0.240439         6.5427 
  48   0.0000       0.241891         6.5822 
  49   0.0000       0.242099         6.5878 
  50   0.0000       0.244751         6.6600 
  51   0.0000       0.254567         6.9271 
  52   0.0000       0.266598         7.2545 
  53   0.0000       0.284246         7.7347 
  54   0.0000       0.301769         8.2115 
  55   0.0000       0.309831         8.4309 
  56   0.0000       0.341194         9.2844 
  57   0.0000       0.357435         9.7263 
  58   0.0000       0.412762        11.2318 
  59   0.0000       0.430672        11.7192 
-------
TIMINGS
-------

Total SCF time: 0 days 0 hours 0 min 0 sec 

Total time                  ....       0.104 sec
Sum of individual times     ....       0.070 sec  ( 67.2%)

Fock matrix formation       ....       0.053 sec  ( 51.1%)
Diagonalization             ....       0.006 sec  (  5.4%)
Density matrix formation    ....       0.001 sec  (  1.0%)
Population analysis         ....       0.000 sec  (  0.0%)
Initial guess               ....       0.001 sec  (  0.8%)
Orbital Transformation      ....       0.000 sec  (  0.0%)
Orbital Orthonormalization  ....       0.000 sec  (  0.0%)
DIIS solution               ....       0.006 sec  (  5.7%)
SOSCF solution              ....       0.003 sec  (  3.2%)

-------------------------   --------------------
FINAL SINGLE POINT ENERGY        -8.214532433966
-------------------------   --------------------


                            ***************************************
                            *     ORCA property calculations      *
                            ***************************************

                                    ---------------------
                                    Active property flags
                                    ---------------------
   (+) Dipole Moment


------------------------------------------------------------------------------
                       ORCA ELECTRIC PROPERTIES CALCULATION
------------------------------------------------------------------------------

Dipole Moment Calculation                       ... on
Quadrupole Moment Calculation                   ... off
Polarizability Calculation                      ... off
GBWName                                         ... /Users/mattyjones/GoogleDrive/Boise/Code/MorphCT/tests/output_EZ/donor_polymer/chromophores/input_orca/single/00020.gbw
Electron density file                           ... /Users/mattyjones/GoogleDrive/Boise/Code/MorphCT/tests/output_EZ/donor_polymer/chromophores/input_orca/single/00020.scfp.tmp

-------------
DIPOLE MOMENT
-------------
                                X             Y             Z
Electronic contribution:    -96.98106    -108.36190      29.50242
Nuclear contribution   :     52.17688      58.42606     -15.99717
                        -----------------------------------------
Total Dipole Moment    :    -44.80418     -49.93584      13.50526
                        -----------------------------------------
Magnitude (a.u.)       :     68.43534
Magnitude (Debye)      :    173.94880


Timings for individual modules:

Sum of individual times         ...        0.180 sec (=   0.003 min)
STO integral calculation        ...        0.038 sec (=   0.001 min)  20.9 %
SCF iterations                  ...        0.142 sec (=   0.002 min)  79.1 %
                             ****ORCA TERMINATED NORMALLY****
TOTAL RUN TIME: 0 days 0 hours 0 minutes 0 seconds 469 msec

