
                                 *****************
                                 * O   R   C   A *
                                 *****************

           --- An Ab Initio, DFT and Semiempirical electronic structure package ---

                  #######################################################
                  #                        -***-                        #
                  #  Department of molecular theory and spectroscopy    #
                  #              Directorship: Frank Neese              #
                  # Max Planck Institute for Chemical Energy Conversion #
                  #                  D-45470 Muelheim/Ruhr              #
                  #                       Germany                       #
                  #                                                     #
                  #                  All rights reserved                #
                  #                        -***-                        #
                  #######################################################


                         Program Version 4.0.1.2 - RELEASE -


 With contributions from (in alphabetic order):
   Daniel Aravena         : Magnetic Properties
   Michael Atanasov       : Ab Initio Ligand Field Theory
   Ute Becker             : Parallelization
   Martin Brehm           : Molecular dynamics
   Dmytro Bykov           : SCF Hessian
   Vijay G. Chilkuri      : MRCI spin determinant printing
   Dipayan Datta          : RHF DLPNO-CCSD density
   Achintya Kumar Dutta   : EOM-CC, STEOM-CC
   Dmitry Ganyushin       : Spin-Orbit,Spin-Spin,Magnetic field MRCI
   Yang Guo               : DLPNO-NEVPT2, CIM, IAO-localization
   Andreas Hansen         : Spin unrestricted coupled pair/coupled cluster methods
   Lee Huntington         : MR-EOM, pCC
   Robert Izsak           : Overlap fitted RIJCOSX, COSX-SCS-MP3, EOM
   Christian Kollmar      : KDIIS, OOCD, Brueckner-CCSD(T), CCSD density
   Simone Kossmann        : Meta GGA functionals, TD-DFT gradient, OOMP2, MP2 Hessian
   Martin Krupicka        : AUTO-CI
   Dagmar Lenk            : GEPOL surface
   Dimitrios Liakos       : Extrapolation schemes; parallel MDCI
   Dimitrios Manganas     : ROCIS; embedding schemes
   Dimitrios Pantazis     : SARC Basis sets
   Taras Petrenko         : DFT Hessian,TD-DFT gradient, ASA, ECA, R-Raman, ABS, FL, XAS/XES, NRVS
   Peter Pinski           : DLPNO-MP2
   Christoph Reimann      : Effective Core Potentials
   Marius Retegan         : Local ZFS, SOC
   Christoph Riplinger    : Optimizer, TS searches, QM/MM, DLPNO-CCSD(T), (RO)-DLPNO pert. Triples
   Tobias Risthaus        : Range-separated hybrids, TD-DFT gradient, RPA, STAB
   Michael Roemelt        : Restricted open shell CIS
   Masaaki Saitow         : Open-shell DLPNO
   Barbara Sandhoefer     : DKH picture change effects
   Kantharuban Sivalingam : CASSCF convergence, NEVPT2, FIC-MRCI
   Georgi Stoychev        : AutoAux
   Boris Wezisla          : Elementary symmetry handling
   Frank Wennmohs         : Technical directorship


 We gratefully acknowledge several colleagues who have allowed us to
 interface, adapt or use parts of their codes:
   Stefan Grimme, W. Hujo, H. Kruse,             : VdW corrections, initial TS optimization,
                  C. Bannwarth                     DFT functionals, gCP, sTDA/sTD-DF
   Ed Valeev                                     : LibInt (2-el integral package), F12 methods
   Garnet Chan, S. Sharma, J. Yang, R. Olivares  : DMRG
   Ulf Ekstrom                                   : XCFun DFT Library
   Mihaly Kallay                                 : mrcc  (arbitrary order and MRCC methods)
   Andreas Klamt, Michael Diedenhofen            : otool_cosmo (COSMO solvation model)
   Jiri Pittner, Ondrej Demel                    : Mk-CCSD
   Frank Weinhold                                : gennbo (NPA and NBO analysis)
   Christopher J. Cramer and Donald G. Truhlar   : smd solvation model


 Your calculation uses the libint2 library for the computation of 2-el integrals
 For citations please refer to: http://libint.valeyev.net

 This ORCA versions uses:
   CBLAS   interface :  Fast vector & matrix operations
   LAPACKE interface :  Fast linear algebra routines
   SCALAPACK package :  Parallel linear algebra routines


leaving
Your calculation utilizes the basis: def2-SVP
   F. Weigend and R. Ahlrichs, Phys. Chem. Chem. Phys. 7, 3297 (2005).

================================================================================
                                        WARNINGS
                       Please study these warnings very carefully!
================================================================================

Warning: TCutStore was < 0. Adjusted to Thresh (uncritical)

WARNING: Direct SCF is incompatible with Method<>HF and Method<>DFT
  ===> : conventional SCF is chosen

WARNING: The NDO methods need Guess=HUECKEL or Guess=HCORE or Guess=MOREAD
  ===> : Guess is set to Hueckel

WARNING: The NDO methods need %rel::SOCType==1
  ===> : %rel::SOCType is set to 1

WARNING: The NDO methods cannot have frozencore=1
  ===> : %method FrozenCore=0 end

INFO   : the flag for use of LIBINT has been found!

================================================================================
                                       INPUT FILE
================================================================================
NAME = /home/mattyjones/Software/morphct/tests/output_EZ/donor_polymer/chromophores/input_orca/single/00022.inp
|  1> # ================================================================
|  2> # Orca input file made by Matty Jones
|  3> # ================================================================
|  4> ! ZINDO/S 
|  5> ! NOPOP
|  6> ! NOMOPRINT
|  7> * xyz 0   1
|  8>  C  -2.54027  -3.29202  -1.70527
|  9>  C  -1.66168  -2.35458  -1.16013
| 10>  C  -2.29070  -1.38589  -0.31740
| 11>  C  -3.67295  -1.55928  -0.19648
| 12>  S  -4.03894  -2.88338  -1.12555
| 13>  H  -0.53893  -2.35256  -1.35375
| 14>  C  -1.50065  -0.18503  0.40806
| 15>  C  -0.48591  0.74404  -0.56286
| 16>  C  0.17107  2.04300  0.29519
| 17>  H  -0.69643  2.53187  0.88967
| 18>  H  0.53829  2.81068  -0.49194
| 19>  H  0.35961  0.08108  -0.96432
| 20>  H  -1.10587  1.16218  -1.43921
| 21>  H  -2.15773  0.56114  0.99460
| 22>  H  -0.79420  -0.67501  1.21681
| 23>  C  1.38724  1.70933  1.31795
| 24>  C  2.91544  1.60475  0.61802
| 25>  C  3.30891  0.02198  0.20529
| 26>  H  4.33053  0.01356  -0.33759
| 27>  H  2.49711  -0.41674  -0.49040
| 28>  H  3.37665  -0.61346  1.17085
| 29>  H  2.93749  2.25057  -0.33503
| 30>  H  3.69459  1.99592  1.37048
| 31>  H  1.17377  0.70669  1.85556
| 32>  H  1.43958  2.54509  2.12039
| 33>  H  -2.30008  -4.09576  -2.35327
| 34>  H  -4.34594  -0.96817  0.37033
| 35> *
| 36> 
| 37>                          ****END OF INPUT****
================================================================================

                       ****************************
                       * Single Point Calculation *
                       ****************************

---------------------------------
CARTESIAN COORDINATES (ANGSTROEM)
---------------------------------
  C     -2.540270   -3.292020   -1.705270
  C     -1.661680   -2.354580   -1.160130
  C     -2.290700   -1.385890   -0.317400
  C     -3.672950   -1.559280   -0.196480
  S     -4.038940   -2.883380   -1.125550
  H     -0.538930   -2.352560   -1.353750
  C     -1.500650   -0.185030    0.408060
  C     -0.485910    0.744040   -0.562860
  C      0.171070    2.043000    0.295190
  H     -0.696430    2.531870    0.889670
  H      0.538290    2.810680   -0.491940
  H      0.359610    0.081080   -0.964320
  H     -1.105870    1.162180   -1.439210
  H     -2.157730    0.561140    0.994600
  H     -0.794200   -0.675010    1.216810
  C      1.387240    1.709330    1.317950
  C      2.915440    1.604750    0.618020
  C      3.308910    0.021980    0.205290
  H      4.330530    0.013560   -0.337590
  H      2.497110   -0.416740   -0.490400
  H      3.376650   -0.613460    1.170850
  H      2.937490    2.250570   -0.335030
  H      3.694590    1.995920    1.370480
  H      1.173770    0.706690    1.855560
  H      1.439580    2.545090    2.120390
  H     -2.300080   -4.095760   -2.353270
  H     -4.345940   -0.968170    0.370330

----------------------------
CARTESIAN COORDINATES (A.U.)
----------------------------
  NO LB      ZA    FRAG     MASS         X           Y           Z
   0 C     4.0000    0    12.011   -4.800415   -6.221016   -3.222493
   1 C     4.0000    0    12.011   -3.140120   -4.449511   -2.192328
   2 C     4.0000    0    12.011   -4.328796   -2.618953   -0.599799
   3 C     4.0000    0    12.011   -6.940870   -2.946612   -0.371293
   4 S     6.0000    0    32.060   -7.632490   -5.448799   -2.126981
   5 H     1.0000    0     1.008   -1.018430   -4.445694   -2.558217
   6 C     4.0000    0    12.011   -2.835818   -0.349656    0.771122
   7 C     4.0000    0    12.011   -0.918237    1.406032   -1.063651
   8 C     4.0000    0    12.011    0.323275    3.860710    0.557828
   9 H     1.0000    0     1.008   -1.316062    4.784541    1.681233
  10 H     1.0000    0     1.008    1.017221    5.311415   -0.929632
  11 H     1.0000    0     1.008    0.679564    0.153219   -1.822301
  12 H     1.0000    0     1.008   -2.089791    2.196202   -2.719713
  13 H     1.0000    0     1.008   -4.077519    1.060401    1.879522
  14 H     1.0000    0     1.008   -1.500820   -1.275584    2.299438
  15 C     4.0000    0    12.011    2.621504    3.230166    2.490565
  16 C     4.0000    0    12.011    5.509383    3.032538    1.167889
  17 C     4.0000    0    12.011    6.252934    0.041536    0.387942
  18 H     1.0000    0     1.008    8.183516    0.025625   -0.637953
  19 H     1.0000    0     1.008    4.718854   -0.787524   -0.926722
  20 H     1.0000    0     1.008    6.380944   -1.159271    2.212586
  21 H     1.0000    0     1.008    5.551052    4.252961   -0.633115
  22 H     1.0000    0     1.008    6.981763    3.771742    2.589832
  23 H     1.0000    0     1.008    2.218104    1.335451    3.506500
  24 H     1.0000    0     1.008    2.720412    4.809523    4.006956
  25 H     1.0000    0     1.008   -4.346521   -7.739865   -4.447036
  26 H     1.0000    0     1.008   -8.212636   -1.829576    0.699822

--------------------------------
INTERNAL COORDINATES (ANGSTROEM)
--------------------------------
 C      0   0   0     0.000000000000     0.00000000     0.00000000
 C      1   0   0     1.395668929689     0.00000000     0.00000000
 C      2   1   0     1.429762333187   114.10096672     0.00000000
 C      3   2   1     1.398320707492   113.69386613     0.00000000
 S      1   2   3     1.658033080762   105.47958412     0.00000000
 H      2   1   3     1.139324513604   123.72215276   179.57035136
 C      3   2   1     1.610135383656   123.71068983   181.14526066
 C      7   3   2     1.683910323889   116.57624920    49.87399880
 C      8   7   3     1.689724712638   111.44738233   175.06507758
 H      9   8   7     1.159722638091   107.06883193   314.26890771
 H      9   8   7     1.159205222426   106.70552848   199.04133168
 H      8   7   3     1.146991788811   109.09476885   296.22249640
 H      8   7   3     1.152033325777   108.33510509    55.82802818
 H      7   3   2     1.154362580345   115.57682048   175.72716277
 H      7   3   2     1.180351034820   107.02489020   292.40753501
 C      9   8   7     1.623712768749   116.94314820    76.69951679
 C     16   9   8     1.684112294742   115.50805329    82.78151387
 C     17  16   9     1.682357146001   111.87669926   266.33610174
 H     18  17  16     1.156934317582   109.17719137   176.00632832
 H     18  17  16     1.155629289392   109.91086102    55.78903129
 H     18  17  16     1.157876856492   108.99063436   295.70989750
 H     17  16   9     1.151466012264   109.05888604    26.58129691
 H     17  16   9     1.151644364811   108.74026065   146.19053680
 H     16   9   8     1.157532255533   109.41565208   320.88714823
 H     16   9   8     1.159803520774   108.75510740   202.97570417
 H      1   2   3     1.059996803627   127.25999916   180.00055467
 H      4   3   2     1.060000069953   127.20667803   180.00028947

---------------------------
INTERNAL COORDINATES (A.U.)
---------------------------
 C      0   0   0     0.000000000000     0.00000000     0.00000000
 C      1   0   0     2.637432050736     0.00000000     0.00000000
 C      2   1   0     2.701859246319   114.10096672     0.00000000
 C      3   2   1     2.642443184550   113.69386613     0.00000000
 S      1   2   3     3.133228443621   105.47958412     0.00000000
 H      2   1   3     2.153011308375   123.72215276   179.57035136
 C      3   2   1     3.042714913645   123.71068983   181.14526066
 C      7   3   2     3.182129346233   116.57624920    49.87399880
 C      8   7   3     3.193116948605   111.44738233   175.06507758
 H      9   8   7     2.191558177300   107.06883193   314.26890771
 H      9   8   7     2.190580403397   106.70552848   199.04133168
 H      8   7   3     2.167500358709   109.09476885   296.22249640
 H      8   7   3     2.177027482868   108.33510509    55.82802818
 H      7   3   2     2.181429136098   115.57682048   175.72716277
 H      7   3   2     2.230540197700   107.02489020   292.40753501
 C      9   8   7     3.068372453087   116.94314820    76.69951679
 C     16   9   8     3.182511015831   115.50805329    82.78151387
 C     17  16   9     3.179194265387   111.87669926   266.33610174
 H     18  17  16     2.186289015166   109.17719137   176.00632832
 H     18  17  16     2.183822869288   109.91086102    55.78903129
 H     18  17  16     2.188070155576   108.99063436   295.70989750
 H     17  16   9     2.175955415698   109.05888604    26.58129691
 H     17  16   9     2.176292453166   108.74026065   146.19053680
 H     16   9   8     2.187418954138   109.41565208   320.88714823
 H     16   9   8     2.191711023421   108.75510740   202.97570417
 H      1   2   3     2.003103661687   127.25999916   180.00055467
 H      4   3   2     2.003109834148   127.20667803   180.00028947

----------------------------
SLATER BASIS SET DIM=  60
----------------------------
  0 C     2 shells
 l=0 nsto= 1
    2       1.625000000000        1.000000000000
 l=1 nsto= 1
    2       1.625000000000        1.000000000000
  1 C     2 shells
 l=0 nsto= 1
    2       1.625000000000        1.000000000000
 l=1 nsto= 1
    2       1.625000000000        1.000000000000
  2 C     2 shells
 l=0 nsto= 1
    2       1.625000000000        1.000000000000
 l=1 nsto= 1
    2       1.625000000000        1.000000000000
  3 C     2 shells
 l=0 nsto= 1
    2       1.625000000000        1.000000000000
 l=1 nsto= 1
    2       1.625000000000        1.000000000000
  4 S     2 shells
 l=0 nsto= 1
    3       1.925000000000        1.000000000000
 l=1 nsto= 1
    3       1.925000000000        1.000000000000
  5 H     1 shells
 l=0 nsto= 1
    1       1.200000000000        1.000000000000
  6 C     2 shells
 l=0 nsto= 1
    2       1.625000000000        1.000000000000
 l=1 nsto= 1
    2       1.625000000000        1.000000000000
  7 C     2 shells
 l=0 nsto= 1
    2       1.625000000000        1.000000000000
 l=1 nsto= 1
    2       1.625000000000        1.000000000000
  8 C     2 shells
 l=0 nsto= 1
    2       1.625000000000        1.000000000000
 l=1 nsto= 1
    2       1.625000000000        1.000000000000
  9 H     1 shells
 l=0 nsto= 1
    1       1.200000000000        1.000000000000
 10 H     1 shells
 l=0 nsto= 1
    1       1.200000000000        1.000000000000
 11 H     1 shells
 l=0 nsto= 1
    1       1.200000000000        1.000000000000
 12 H     1 shells
 l=0 nsto= 1
    1       1.200000000000        1.000000000000
 13 H     1 shells
 l=0 nsto= 1
    1       1.200000000000        1.000000000000
 14 H     1 shells
 l=0 nsto= 1
    1       1.200000000000        1.000000000000
 15 C     2 shells
 l=0 nsto= 1
    2       1.625000000000        1.000000000000
 l=1 nsto= 1
    2       1.625000000000        1.000000000000
 16 C     2 shells
 l=0 nsto= 1
    2       1.625000000000        1.000000000000
 l=1 nsto= 1
    2       1.625000000000        1.000000000000
 17 C     2 shells
 l=0 nsto= 1
    2       1.625000000000        1.000000000000
 l=1 nsto= 1
    2       1.625000000000        1.000000000000
 18 H     1 shells
 l=0 nsto= 1
    1       1.200000000000        1.000000000000
 19 H     1 shells
 l=0 nsto= 1
    1       1.200000000000        1.000000000000
 20 H     1 shells
 l=0 nsto= 1
    1       1.200000000000        1.000000000000
 21 H     1 shells
 l=0 nsto= 1
    1       1.200000000000        1.000000000000
 22 H     1 shells
 l=0 nsto= 1
    1       1.200000000000        1.000000000000
 23 H     1 shells
 l=0 nsto= 1
    1       1.200000000000        1.000000000000
 24 H     1 shells
 l=0 nsto= 1
    1       1.200000000000        1.000000000000
 25 H     1 shells
 l=0 nsto= 1
    1       1.200000000000        1.000000000000
 26 H     1 shells
 l=0 nsto= 1
    1       1.200000000000        1.000000000000
------------------------------------------------------------------------------
                           ORCA NDO INTEGRAL CALCULATION
------------------------------------------------------------------------------

--------------
NDO PARAMETERS
--------------

Gamma integral treatment              ... Mataga-Nishimoto
Nuclear repulsuion treatment          ... Direct (ZA*ZB/RAB)
Interaction factors:
s-s (sigma) =    1.0000
s-p (sigma) =    1.0000
s-d (sigma) =    1.0000
p-p (sigma) =    1.2670  p-p(pi) =    0.5850
p-d (sigma) =    1.0000  p-d(pi) =    1.0000
d-d (sigma) =    1.0000  d-d(pi) =    1.0000 d-d (delta) =    1.0000

fGamma parameter for Mataga-Nishimoto gamma integrals:    1.2000

--------------------------
Parameters for Element H :
--------------------------
 One-electron parameters (in eV)
  U(s)  =   -13.060000 Beta(s) =    12.000000 Neff(s) =     1.000000
 One-center electron repulsion parameters (in eV)
  G(s,s)=    12.850000
--------------------------
Parameters for Element C :
--------------------------
 One-electron parameters (in eV)
  U(s)  =   -50.870766 Beta(s) =    17.000000 Neff(s) =     2.000000
  U(p)  =   -41.599980 Beta(p) =    17.000000 Neff(p) =     2.000000 
 One-center electron repulsion parameters (in eV)
  G(s,s)=    11.110000
  G(s,p)=    11.110000 G(p,p)  =    11.110000
 Slater-Condon parameters (in eV)
 F2(p,p)=     4.5098 G1(s,p)=    6.8977
--------------------------
Parameters for Element S :
--------------------------
 One-electron parameters (in eV)
  U(s)  =   -69.509597 Beta(s) =    15.000000 Neff(s) =     2.000000
  U(p)  =   -60.725746 Beta(p) =    15.000000 Neff(p) =     4.000000 
 One-center electron repulsion parameters (in eV)
  G(s,s)=    10.090000
  G(s,p)=    10.090000 G(p,p)  =    10.090000
 Slater-Condon parameters (in eV)
 F2(p,p)=     4.5377 G1(s,p)=    3.0756

 Number of atoms                    ....   27
 Number of basis functions          ....   60

 Overlap integrals                  .... done
 One electron matrix                .... done
 Nuclear repulsion                  .... done
 Integral list                      .... done
 Electron-electron repulsion        .... done
-------------------------------------------------------------------------------
                                 ORCA SCF
-------------------------------------------------------------------------------

------------
SCF SETTINGS
------------
Hamiltonian:
 ZDO-Hamiltonian        Method          .... INDO


General Settings:
 Integral files         IntName         .... /home/mattyjones/Software/morphct/tests/output_EZ/donor_polymer/chromophores/input_orca/single/00022
 Hartree-Fock type      HFTyp           .... RHF
 Total Charge           Charge          ....    0
 Multiplicity           Mult            ....    1
 Number of Electrons    NEL             ....   62
 Basis Dimension        Dim             ....   60
 Nuclear Repulsion      ENuc            ....    299.4288312798 Eh

Convergence Acceleration:
 DIIS                   CNVDIIS         .... on
   Start iteration      DIISMaxIt       ....    12
   Startup error        DIISStart       ....  0.200000
   # of expansion vecs  DIISMaxEq       ....     5
   Bias factor          DIISBfac        ....   1.050
   Max. coefficient     DIISMaxC        ....  10.000
 Newton-Raphson         CNVNR           .... off
 SOSCF                  CNVSOSCF        .... on
   Start iteration      SOSCFMaxIt      ....   150
   Startup grad/error   SOSCFStart      ....  0.003300
 Level Shifting         CNVShift        .... on
   Level shift para.    LevelShift      ....    0.2500
   Turn off err/grad.   ShiftErr        ....    0.0010
 Zerner damping         CNVZerner       .... off
 Static damping         CNVDamp         .... on
   Fraction old density DampFac         ....    0.7000
   Max. Damping (<1)    DampMax         ....    0.9800
   Min. Damping (>=0)   DampMin         ....    0.0000
   Turn off err/grad.   DampErr         ....    0.1000
 Fernandez-Rico         CNVRico         .... off

SCF Procedure:
 Maximum # iterations   MaxIter         ....   125
 SCF integral mode      SCFMode         .... Conventional
 Integral Buffer length BufferLength    .... 1048576
 Integral index format  IndFormat       ....     0
 Integral value format  ValFormat       ....     0
 Integral Storage       Thresh          ....  1.000e-08 Eh

Convergence Tolerance:
 Convergence Check Mode ConvCheckMode   .... Total+1el-Energy
 Convergence forced     ConvForced      .... 0
 Energy Change          TolE            ....  1.000e-06 Eh
 1-El. energy change                    ....  1.000e-03 Eh
 Orbital Gradient       TolG            ....  5.000e-05
 Orbital Rotation angle TolX            ....  5.000e-05
 DIIS Error             TolErr          ....  1.000e-06


Diagonalization of the overlap matrix:
Smallest eigenvalue                        ... 1.698e-01
Time for diagonalization                   ...    0.001 sec
Threshold for overlap eigenvalues          ... 1.000e-08
Number of eigenvalues below threshold      ... 0
Time for construction of square roots      ...    0.000 sec
Total time needed                          ...    0.001 sec

-------------------------------
INITIAL GUESS: EXTENDED HUECKEL
-------------------------------
EHT matrix was read from disk
EHT matrix was diagonalized
Initial density was built
                      ------------------
                      INITIAL GUESS DONE
                      ------------------

 InCore treatment chosen:
   Memory dedicated               ...    1024 MB
   Memory needed                  ...      0 MB
   Number of tiny    integrals    ...       0
   Number of small   integrals    ...       0
   Number of regular integrals    ...    1896

--------------
SCF ITERATIONS
--------------
ITER       Energy         Delta-E        Max-DP      RMS-DP      [F,P]     Damp
  0     -5.3852907370   0.000000000000 0.04122909  0.00202648  0.0980249 0.7000
  1     -5.4059832957  -0.020692558676 0.03883787  0.00190737  0.0669992 0.7000
                               ***Turning on DIIS***
  2     -5.4212888926  -0.015305596972 0.09824304  0.00489229  0.0441713 0.0000
  3     -5.4613449200  -0.040056027371 0.01716230  0.00100643  0.0188936 0.0000
  4     -5.4541533399   0.007191580118 0.01075595  0.00069039  0.0065224 0.0000
  5     -5.4622814845  -0.008128144643 0.00744769  0.00046773  0.0037525 0.0000
  6     -5.4637120621  -0.001430577575 0.00569187  0.00033392  0.0020570 0.0000
                      *** Initiating the SOSCF procedure ***
                           *** Shutting down DIIS ***
                      *** Re-Reading the Fockian *** 
                      *** Removing any level shift *** 
ITER      Energy       Delta-E        Grad      Rot      Max-DP    RMS-DP
  7     -5.46154456   0.0021675047  0.002989  0.002989  0.003382  0.000188
  8     -5.46052232   0.0010222337  0.000794  0.002180  0.001685  0.000087
  9     -5.46052949  -0.0000071675  0.000352  0.002133  0.001883  0.000092
 10     -5.46053211  -0.0000026212  0.000027  0.000051  0.000101  0.000005
                 **** Energy Check signals convergence ****
              ***Rediagonalizing the Fockian in SOSCF/NRSCF***

               *****************************************************
               *                     SUCCESS                       *
               *           SCF CONVERGED AFTER  11 CYCLES          *
               *****************************************************


----------------
TOTAL SCF ENERGY
----------------

Total Energy       :           -5.46053213 Eh            -148.58863 eV

Components:
Nuclear Repulsion  :          299.42883128 Eh            8147.87273 eV
Electronic Energy  :         -304.88936341 Eh           -8296.46136 eV
One Electron Energy:         -564.50790071 Eh          -15361.04092 eV
Two Electron Energy:          259.61853729 Eh            7064.57956 eV


---------------
SCF CONVERGENCE
---------------

  Last Energy change         ...   -2.1322e-08  Tolerance :   1.0000e-06
  Last MAX-Density change    ...    3.0537e-05  Tolerance :   1.0000e-05
  Last RMS-Density change    ...    1.5759e-06  Tolerance :   1.0000e-06
  Last Orbital Gradient      ...    6.0312e-06  Tolerance :   5.0000e-05
  Last Orbital Rotation      ...    1.7385e-05  Tolerance :   5.0000e-05

             **** THE GBW FILE WAS UPDATED (/home/mattyjones/Software/morphct/tests/output_EZ/donor_polymer/chromophores/input_orca/single/00022.gbw) ****
             **** DENSITY FILE WAS UPDATED (/home/mattyjones/Software/morphct/tests/output_EZ/donor_polymer/chromophores/input_orca/single/00022.scfp.tmp) ****
             **** ENERGY FILE WAS UPDATED (/home/mattyjones/Software/morphct/tests/output_EZ/donor_polymer/chromophores/input_orca/single/00022.en.tmp) ****
----------------
ORBITAL ENERGIES
----------------

  NO   OCC          E(Eh)            E(eV) 
   0   2.0000      -1.557672       -42.3864 
   1   2.0000      -1.416115       -38.5344 
   2   2.0000      -1.289214       -35.0813 
   3   2.0000      -1.175458       -31.9858 
   4   2.0000      -1.115510       -30.3546 
   5   2.0000      -1.041514       -28.3410 
   6   2.0000      -0.950067       -25.8526 
   7   2.0000      -0.912101       -24.8195 
   8   2.0000      -0.859170       -23.3792 
   9   2.0000      -0.831389       -22.6232 
  10   2.0000      -0.775615       -21.1056 
  11   2.0000      -0.737138       -20.0586 
  12   2.0000      -0.711216       -19.3532 
  13   2.0000      -0.658012       -17.9054 
  14   2.0000      -0.641173       -17.4472 
  15   2.0000      -0.619485       -16.8571 
  16   2.0000      -0.581981       -15.8365 
  17   2.0000      -0.573821       -15.6145 
  18   2.0000      -0.569095       -15.4859 
  19   2.0000      -0.553527       -15.0622 
  20   2.0000      -0.545916       -14.8551 
  21   2.0000      -0.515886       -14.0380 
  22   2.0000      -0.505882       -13.7657 
  23   2.0000      -0.496575       -13.5125 
  24   2.0000      -0.492890       -13.4122 
  25   2.0000      -0.474603       -12.9146 
  26   2.0000      -0.471179       -12.8214 
  27   2.0000      -0.465176       -12.6581 
  28   2.0000      -0.437343       -11.9007 
  29   2.0000      -0.356199        -9.6927 
  30   2.0000      -0.304496        -8.2858 
  31   0.0000       0.008092         0.2202 
  32   0.0000       0.070866         1.9284 
  33   0.0000       0.080407         2.1880 
  34   0.0000       0.088207         2.4002 
  35   0.0000       0.105146         2.8612 
  36   0.0000       0.109309         2.9744 
  37   0.0000       0.122333         3.3288 
  38   0.0000       0.141308         3.8452 
  39   0.0000       0.157812         4.2943 
  40   0.0000       0.164821         4.4850 
  41   0.0000       0.168732         4.5914 
  42   0.0000       0.206782         5.6268 
  43   0.0000       0.230893         6.2829 
  44   0.0000       0.234541         6.3822 
  45   0.0000       0.235701         6.4137 
  46   0.0000       0.238205         6.4819 
  47   0.0000       0.243191         6.6176 
  48   0.0000       0.245253         6.6737 
  49   0.0000       0.246304         6.7023 
  50   0.0000       0.257066         6.9951 
  51   0.0000       0.266858         7.2616 
  52   0.0000       0.269546         7.3347 
  53   0.0000       0.282281         7.6812 
  54   0.0000       0.302069         8.2197 
  55   0.0000       0.310517         8.4496 
  56   0.0000       0.341898         9.3035 
  57   0.0000       0.352034         9.5793 
  58   0.0000       0.411724        11.2036 
  59   0.0000       0.430984        11.7277 
-------
TIMINGS
-------

Total SCF time: 0 days 0 hours 0 min 0 sec 

Total time                  ....       0.079 sec
Sum of individual times     ....       0.069 sec  ( 87.4%)

Fock matrix formation       ....       0.049 sec  ( 61.6%)
Diagonalization             ....       0.006 sec  (  7.1%)
Density matrix formation    ....       0.001 sec  (  0.7%)
Population analysis         ....       0.000 sec  (  0.0%)
Initial guess               ....       0.001 sec  (  1.0%)
Orbital Transformation      ....       0.000 sec  (  0.0%)
Orbital Orthonormalization  ....       0.000 sec  (  0.0%)
DIIS solution               ....       0.002 sec  (  2.1%)
SOSCF solution              ....       0.012 sec  ( 14.8%)

-------------------------   --------------------
FINAL SINGLE POINT ENERGY        -5.460532133745
-------------------------   --------------------


                            ***************************************
                            *     ORCA property calculations      *
                            ***************************************

                                    ---------------------
                                    Active property flags
                                    ---------------------
   (+) Dipole Moment


------------------------------------------------------------------------------
                       ORCA ELECTRIC PROPERTIES CALCULATION
------------------------------------------------------------------------------

Dipole Moment Calculation                       ... on
Quadrupole Moment Calculation                   ... off
Polarizability Calculation                      ... off
GBWName                                         ... /home/mattyjones/Software/morphct/tests/output_EZ/donor_polymer/chromophores/input_orca/single/00022.gbw
Electron density file                           ... /home/mattyjones/Software/morphct/tests/output_EZ/donor_polymer/chromophores/input_orca/single/00022.scfp.tmp
The origin for moment calculation is the CENTER OF MASS  = (-1.948078, -1.333192 -0.528049)

-------------
DIPOLE MOMENT
-------------
                                X             Y             Z
Electronic contribution:   -107.84614     -75.38507     -29.62056
Nuclear contribution   :     57.84690      40.36962      15.88150
                        -----------------------------------------
Total Dipole Moment    :    -49.99924     -35.01545     -13.73906
                        -----------------------------------------
Magnitude (a.u.)       :     62.56810
Magnitude (Debye)      :    159.03548


Timings for individual modules:

Sum of individual times         ...        0.138 sec (=   0.002 min)
STO integral calculation        ...        0.048 sec (=   0.001 min)  34.7 %
SCF iterations                  ...        0.090 sec (=   0.002 min)  65.3 %
                             ****ORCA TERMINATED NORMALLY****
TOTAL RUN TIME: 0 days 0 hours 0 minutes 0 seconds 410 msec

