
                                 *****************
                                 * O   R   C   A *
                                 *****************

           --- An Ab Initio, DFT and Semiempirical electronic structure package ---

                  #######################################################
                  #                        -***-                        #
                  #  Department of molecular theory and spectroscopy    #
                  #              Directorship: Frank Neese              #
                  # Max Planck Institute for Chemical Energy Conversion #
                  #                  D-45470 Muelheim/Ruhr              #
                  #                       Germany                       #
                  #                                                     #
                  #                  All rights reserved                #
                  #                        -***-                        #
                  #######################################################


                         Program Version 3.0.3 - RELEASE   -


 With contributions from (in alphabetic order):
   Ute Becker             : Parallelization
   Dmytro Bykov           : SCF Hessian
   Dmitry Ganyushin       : Spin-Orbit,Spin-Spin,Magnetic field MRCI
   Andreas Hansen         : Spin unrestricted coupled pair/coupled cluster methods
   Dimitrios Liakos       : Extrapolation schemes; parallel MDCI
   Robert Izsak           : Overlap fitted RIJCOSX, COSX-SCS-MP3
   Christian Kollmar      : KDIIS, OOCD, Brueckner-CCSD(T), CCSD density
   Simone Kossmann        : Meta GGA functionals, TD-DFT gradient, OOMP2, MP2 Hessian
   Taras Petrenko         : DFT Hessian,TD-DFT gradient, ASA and ECA modules, normal mode analysis, Resonance Raman, ABS, FL, XAS/XES, NRVS
   Christoph Reimann      : Effective Core Potentials
   Michael Roemelt        : Restricted open shell CIS
   Christoph Riplinger    : Improved optimizer, TS searches, QM/MM, DLPNO-CCSD
   Barbara Sandhoefer     : DKH picture change effects
   Igor Schapiro          : Molecular dynamics
   Kantharuban Sivalingam : CASSCF convergence, NEVPT2
   Boris Wezisla          : Elementary symmetry handling
   Frank Wennmohs         : Technical directorship


 We gratefully acknowledge several colleagues who have allowed us to
 interface, adapt or use parts of their codes:
   Stefan Grimme, W. Hujo, H. Kruse, T. Risthaus : VdW corrections, initial TS optimization,
                                                   DFT functionals, gCP
   Ed Valeev                                     : LibInt (2-el integral package), F12 methods
   Garnet Chan, S. Sharma, R. Olivares           : DMRG
   Ulf Ekstrom                                   : XCFun DFT Library
   Mihaly Kallay                                 : mrcc  (arbitrary order and MRCC methods)
   Andreas Klamt, Michael Diedenhofen            : otool_cosmo (COSMO solvation model)
   Frank Weinhold                                : gennbo (NPA and NBO analysis)
   Christopher J. Cramer and Donald G. Truhlar   : smd solvation model


 Your calculation uses the libint2 library for the computation of 2-el integrals
 For citations please refer to: http://libint.valeyev.net

 This ORCA versions uses:
   CBLAS   interface :  Fast vector & matrix operations
   LAPACKE interface :  Fast linear algebra routines
   SCALAPACK package :  Parallel linear algebra routines


leaving
================================================================================
                                        WARNINGS
                       Please study these warnings very carefully!
================================================================================
Now building the actual basis set

WARNING: Direct SCF is incompatible with Method<>HF and Method<>DFT
  ===> : conventional SCF is chosen

WARNING: The NDO methods need Guess=HUECKEL or Guess=HCORE or Guess=MOREAD
  ===> : Guess is set to Hueckel

WARNING: The NDO methods need %rel::SOCType==1
  ===> : %rel::SOCType is set to 1

WARNING: The NDO methods cannot have frozencore=1
  ===> : %method FrozenCore=0 end


INFO   : the flag for use of LIBINT has been found!

================================================================================
                                       INPUT FILE
================================================================================
NAME = /Users/mattyjones/GoogleDrive/Boise/Code/MorphCT/tests/output_EZ/donor_polymer/chromophores/input_orca/single/00026.inp
|  1> # ================================================================
|  2> # Orca input file made by Matty Jones
|  3> # ================================================================
|  4> ! ZINDO/S 
|  5> ! NOPOP
|  6> ! NOMOPRINT
|  7> * xyz 0   1
|  8>  C  -1.91198  -3.24098  -2.43732
|  9>  C  -1.29990  -2.51222  -1.41645
| 10>  C  -2.14221  -1.52324  -0.81921
| 11>  C  -3.42588  -1.47081  -1.37127
| 12>  S  -3.45079  -2.63448  -2.55266
| 13>  H  -0.21668  -2.66857  -1.08875
| 14>  C  -1.70530  -0.51807  0.36835
| 15>  C  -0.51699  0.59571  -0.07516
| 16>  C  -0.06312  1.75959  1.06498
| 17>  H  -0.94502  1.85764  1.81200
| 18>  H  0.04433  2.76788  0.50565
| 19>  H  0.42198  0.00354  -0.38070
| 20>  H  -0.92204  1.16712  -0.99451
| 21>  H  -2.59576  0.03260  0.86491
| 22>  H  -1.21645  -1.15650  1.22233
| 23>  C  1.29315  1.44352  1.89835
| 24>  C  2.66327  1.89052  1.00950
| 25>  C  3.18763  0.63918  0.01249
| 26>  H  4.34228  0.57709  0.05421
| 27>  H  2.84835  0.84918  -1.07414
| 28>  H  2.73543  -0.36440  0.37031
| 29>  H  2.40965  2.80261  0.35427
| 30>  H  3.50701  2.16267  1.74285
| 31>  H  1.35965  0.32265  2.16137
| 32>  H  1.30016  2.05905  2.87828
| 33>  H  -1.48343  -4.01830  -3.01674
| 34>  H  -4.21734  -0.82295  -1.09294
| 35> *
| 36> 
| 37>                          ****END OF INPUT****
================================================================================

                       ****************************
                       * Single Point Calculation *
                       ****************************

---------------------------------
CARTESIAN COORDINATES (ANGSTROEM)
---------------------------------
  C     -1.911980   -3.240980   -2.437320
  C     -1.299900   -2.512220   -1.416450
  C     -2.142210   -1.523240   -0.819210
  C     -3.425880   -1.470810   -1.371270
  S     -3.450790   -2.634480   -2.552660
  H     -0.216680   -2.668570   -1.088750
  C     -1.705300   -0.518070    0.368350
  C     -0.516990    0.595710   -0.075160
  C     -0.063120    1.759590    1.064980
  H     -0.945020    1.857640    1.812000
  H      0.044330    2.767880    0.505650
  H      0.421980    0.003540   -0.380700
  H     -0.922040    1.167120   -0.994510
  H     -2.595760    0.032600    0.864910
  H     -1.216450   -1.156500    1.222330
  C      1.293150    1.443520    1.898350
  C      2.663270    1.890520    1.009500
  C      3.187630    0.639180    0.012490
  H      4.342280    0.577090    0.054210
  H      2.848350    0.849180   -1.074140
  H      2.735430   -0.364400    0.370310
  H      2.409650    2.802610    0.354270
  H      3.507010    2.162670    1.742850
  H      1.359650    0.322650    2.161370
  H      1.300160    2.059050    2.878280
  H     -1.483430   -4.018300   -3.016740
  H     -4.217340   -0.822950   -1.092940

----------------------------
CARTESIAN COORDINATES (A.U.)
----------------------------
  NO LB      ZA    FRAG    MASS        X           Y           Z
   0 C     4.0000    0    12.011         -3.613118573534755         -6.124564605516098         -4.605867300728946
   1 C     4.0000    0    12.011         -2.456455001484235         -4.747407788159647         -2.676702582392757
   2 C     4.0000    0    12.011         -4.048190221347444         -2.878506436234207         -1.548082546169629
   3 C     4.0000    0    12.011         -6.473974967678137         -2.779428095032716         -2.591324755662195
   4 S     6.0000    0    32.060         -6.521048045674116         -4.978445705292859         -4.823828313015422
   5 H     1.0000    0     1.008         -0.409465858698057         -5.042866469198234         -2.057439328306763
   6 C     4.0000    0    12.011         -3.222549976175911         -0.979010418200583          0.696080621429893
   7 C     4.0000    0    12.011         -0.976969513975948          1.125728755238229         -0.142031816225521
   8 C     4.0000    0    12.011         -0.119279513573109          3.325143207986495          2.012520538103455
   9 H     1.0000    0     1.008         -1.785828991078261          3.510430855417474          3.424183754665308
  10 H     1.0000    0     1.008          0.083771559516729          5.230535171557954          0.955540019617281
  11 H     1.0000    0     1.008          0.797426633992090          0.006689630514081         -0.719418739183820
  12 H     1.0000    0     1.008         -1.742403084520751          2.205537165422171         -1.879351537446024
  13 H     1.0000    0     1.008         -4.905275509387428          0.061605071965833          1.634443030489830
  14 H     1.0000    0     1.008         -2.298757355608507         -2.185468273879928          2.309868945275964
  15 C     4.0000    0    12.011          2.443699350080267          2.727857468838005          3.587361606329408
  16 C     4.0000    0    12.011          5.032850920688452          3.572565050700804          1.907678532193504
  17 C     4.0000    0    12.011          6.023747716271400          1.207875150279786          0.023602679412676
  18 H     1.0000    0     1.008          8.205719996803571          1.090542054624615          0.102442053719871
  19 H     1.0000    0     1.008          5.382601433554597          1.604717638403249         -2.029830429490173
  20 H     1.0000    0     1.008          5.169213558512210         -0.688616203200904          0.699784484652379
  21 H     1.0000    0     1.008          4.553578578603344          5.296165360189039          0.669473277464282
  22 H     1.0000    0     1.008          6.627288448923169          4.086854018047474          3.293509192504653
  23 H     1.0000    0     1.008          2.569366137986030          0.609720137109692          4.084397374073375
  24 H     1.0000    0     1.008          2.456946330279055          3.891040596050553          5.439160936742860
  25 H     1.0000    0     1.008         -2.803276438842802         -7.593486523935765         -5.700812417245596
  26 H     1.0000    0     1.008         -7.969617613631452         -1.555150121910494         -2.065357280807893

--------------------------------
INTERNAL COORDINATES (ANGSTROEM)
--------------------------------
 C      0   0   0   0.000000     0.000     0.000
 C      1   0   0   1.395675     0.000     0.000
 C      2   1   0   1.429777   114.101     0.000
 C      3   2   1   1.398330   113.693     0.000
 S      1   2   3   1.658036   105.480     0.000
 H      2   1   3   1.142453   123.653   181.027
 C      3   2   1   1.616031   125.305   180.832
 C      7   3   2   1.687983   114.058    65.952
 C      8   7   3   1.691311   117.766   176.027
 H      9   8   7   1.159914   106.756   337.534
 H      9   8   7   1.158035   107.366   221.992
 H      8   7   3   1.151384   107.727   298.765
 H      8   7   3   1.155759   106.768    55.962
 H      7   3   2   1.158762   113.749   193.053
 H      7   3   2   1.172966   108.008   309.777
 C      9   8   7   1.622921   115.874    98.785
 C     16   9   8   1.693249   110.809    82.479
 C     17  16   9   1.683697   111.509   271.932
 H     18  17  16   1.157071   109.227   221.921
 H     18  17  16   1.157573   109.254   101.998
 H     18  17  16   1.157451   109.857   341.922
 H     17  16   9   1.151329   109.247    32.087
 H     17  16   9   1.150550   108.738   151.773
 H     16   9   8   1.153235   110.768   321.061
 H     16   9   8   1.157233   109.651   200.876
 H      1   2   3   1.060004   127.260   180.000
 H      4   3   2   1.060000   127.206   180.000

---------------------------
INTERNAL COORDINATES (A.U.)
---------------------------
 C      0   0   0   0.000000     0.000     0.000
 C      1   0   0   2.637443     0.000     0.000
 C      2   1   0   2.701888   114.101     0.000
 C      3   2   1   2.642461   113.693     0.000
 S      1   2   3   3.133233   105.480     0.000
 H      2   1   3   2.158923   123.653   181.027
 C      3   2   1   3.053856   125.305   180.832
 C      7   3   2   3.189826   114.058    65.952
 C      8   7   3   3.196115   117.766   176.027
 H      9   8   7   2.191920   106.756   337.534
 H      9   8   7   2.188368   107.366   221.992
 H      8   7   3   2.175800   107.727   298.765
 H      8   7   3   2.184068   106.768    55.962
 H      7   3   2   2.189742   113.749   193.053
 H      7   3   2   2.216584   108.008   309.777
 C      9   8   7   3.066877   115.874    98.785
 C     16   9   8   3.199777   110.809    82.479
 C     17  16   9   3.181725   111.509   271.932
 H     18  17  16   2.186547   109.227   221.921
 H     18  17  16   2.187496   109.254   101.998
 H     18  17  16   2.187265   109.857   341.922
 H     17  16   9   2.175696   109.247    32.087
 H     17  16   9   2.174224   108.738   151.773
 H     16   9   8   2.179299   110.768   321.061
 H     16   9   8   2.186854   109.651   200.876
 H      1   2   3   2.003118   127.260   180.000
 H      4   3   2   2.003109   127.206   180.000

----------------------------
SLATER BASIS SET DIM=  60
----------------------------
  0 C     2 shells
 l=0 nsto= 1
    2       1.625000000000        1.000000000000
 l=1 nsto= 1
    2       1.625000000000        1.000000000000
  1 C     2 shells
 l=0 nsto= 1
    2       1.625000000000        1.000000000000
 l=1 nsto= 1
    2       1.625000000000        1.000000000000
  2 C     2 shells
 l=0 nsto= 1
    2       1.625000000000        1.000000000000
 l=1 nsto= 1
    2       1.625000000000        1.000000000000
  3 C     2 shells
 l=0 nsto= 1
    2       1.625000000000        1.000000000000
 l=1 nsto= 1
    2       1.625000000000        1.000000000000
  4 S     2 shells
 l=0 nsto= 1
    3       1.925000000000        1.000000000000
 l=1 nsto= 1
    3       1.925000000000        1.000000000000
  5 H     1 shells
 l=0 nsto= 1
    1       1.200000000000        1.000000000000
  6 C     2 shells
 l=0 nsto= 1
    2       1.625000000000        1.000000000000
 l=1 nsto= 1
    2       1.625000000000        1.000000000000
  7 C     2 shells
 l=0 nsto= 1
    2       1.625000000000        1.000000000000
 l=1 nsto= 1
    2       1.625000000000        1.000000000000
  8 C     2 shells
 l=0 nsto= 1
    2       1.625000000000        1.000000000000
 l=1 nsto= 1
    2       1.625000000000        1.000000000000
  9 H     1 shells
 l=0 nsto= 1
    1       1.200000000000        1.000000000000
 10 H     1 shells
 l=0 nsto= 1
    1       1.200000000000        1.000000000000
 11 H     1 shells
 l=0 nsto= 1
    1       1.200000000000        1.000000000000
 12 H     1 shells
 l=0 nsto= 1
    1       1.200000000000        1.000000000000
 13 H     1 shells
 l=0 nsto= 1
    1       1.200000000000        1.000000000000
 14 H     1 shells
 l=0 nsto= 1
    1       1.200000000000        1.000000000000
 15 C     2 shells
 l=0 nsto= 1
    2       1.625000000000        1.000000000000
 l=1 nsto= 1
    2       1.625000000000        1.000000000000
 16 C     2 shells
 l=0 nsto= 1
    2       1.625000000000        1.000000000000
 l=1 nsto= 1
    2       1.625000000000        1.000000000000
 17 C     2 shells
 l=0 nsto= 1
    2       1.625000000000        1.000000000000
 l=1 nsto= 1
    2       1.625000000000        1.000000000000
 18 H     1 shells
 l=0 nsto= 1
    1       1.200000000000        1.000000000000
 19 H     1 shells
 l=0 nsto= 1
    1       1.200000000000        1.000000000000
 20 H     1 shells
 l=0 nsto= 1
    1       1.200000000000        1.000000000000
 21 H     1 shells
 l=0 nsto= 1
    1       1.200000000000        1.000000000000
 22 H     1 shells
 l=0 nsto= 1
    1       1.200000000000        1.000000000000
 23 H     1 shells
 l=0 nsto= 1
    1       1.200000000000        1.000000000000
 24 H     1 shells
 l=0 nsto= 1
    1       1.200000000000        1.000000000000
 25 H     1 shells
 l=0 nsto= 1
    1       1.200000000000        1.000000000000
 26 H     1 shells
 l=0 nsto= 1
    1       1.200000000000        1.000000000000
------------------------------------------------------------------------------
                           ORCA NDO INTEGRAL CALCULATION
------------------------------------------------------------------------------

--------------
NDO PARAMETERS
--------------

Gamma integral treatment              ... Mataga-Nishimoto
Nuclear repulsuion treatment          ... Direct (ZA*ZB/RAB)
Interaction factors:
s-s (sigma) =    1.0000
s-p (sigma) =    1.0000
s-d (sigma) =    1.0000
p-p (sigma) =    1.2670  p-p(pi) =    0.5850
p-d (sigma) =    1.0000  p-d(pi) =    1.0000
d-d (sigma) =    1.0000  d-d(pi) =    1.0000 d-d (delta) =    1.0000

fGamma parameter for Mataga-Nishimoto gamma integrals:    1.2000

--------------------------
Parameters for Element H :
--------------------------
 One-electron parameters (in eV)
  U(s)  =   -13.060000 Beta(s) =    12.000000 Neff(s) =     1.000000
 One-center electron repulsion parameters (in eV)
  G(s,s)=    12.850000
--------------------------
Parameters for Element C :
--------------------------
 One-electron parameters (in eV)
  U(s)  =   -50.870766 Beta(s) =    17.000000 Neff(s) =     2.000000
  U(p)  =   -41.599980 Beta(p) =    17.000000 Neff(p) =     2.000000 
 One-center electron repulsion parameters (in eV)
  G(s,s)=    11.110000
  G(s,p)=    11.110000 G(p,p)  =    11.110000
 Slater-Condon parameters (in eV)
 F2(p,p)=     4.5098 G1(s,p)=    6.8977
--------------------------
Parameters for Element S :
--------------------------
 One-electron parameters (in eV)
  U(s)  =   -69.509597 Beta(s) =    15.000000 Neff(s) =     2.000000
  U(p)  =   -60.725746 Beta(p) =    15.000000 Neff(p) =     4.000000 
 One-center electron repulsion parameters (in eV)
  G(s,s)=    10.090000
  G(s,p)=    10.090000 G(p,p)  =    10.090000
 Slater-Condon parameters (in eV)
 F2(p,p)=     4.5377 G1(s,p)=    3.0756

 Number of atoms                    ....   27
 Number of basis functions          ....   60

 Overlap integrals                  .... done
 One electron matrix                .... done
 Nuclear repulsion                  .... done
 Integral list                      .... done
 Electron-electron repulsion        .... done
-------------------------------------------------------------------------------
                                 ORCA SCF
-------------------------------------------------------------------------------

------------
SCF SETTINGS
------------
Hamiltonian:
 ZDO-Hamiltonian        Method          .... INDO


General Settings:
 Integral files         IntName         .... /Users/mattyjones/GoogleDrive/Boise/Code/MorphCT/tests/output_EZ/donor_polymer/chromophores/input_orca/single/00026
 Hartree-Fock type      HFTyp           .... RHF
 Total Charge           Charge          ....    0
 Multiplicity           Mult            ....    1
 Number of Electrons    NEL             ....   62
 Basis Dimension        Dim             ....   60
 Nuclear Repulsion      ENuc            ....    298.7941747087 Eh

Convergence Acceleration:
 DIIS                   CNVDIIS         .... on
   Start iteration      DIISMaxIt       ....    12
   Startup error        DIISStart       ....  0.200000
   # of expansion vecs  DIISMaxEq       ....     5
   Bias factor          DIISBfac        ....   1.050
   Max. coefficient     DIISMaxC        ....  10.000
 Newton-Raphson         CNVNR           .... off
 SOSCF                  CNVSOSCF        .... on
   Start iteration      SOSCFMaxIt      ....   150
   Startup grad/error   SOSCFStart      ....  0.003300
 Level Shifting         CNVShift        .... on
   Level shift para.    LevelShift      ....    0.2500
   Turn off err/grad.   ShiftErr        ....    0.0010
 Zerner damping         CNVZerner       .... off
 Static damping         CNVDamp         .... on
   Fraction old density DampFac         ....    0.7000
   Max. Damping (<1)    DampMax         ....    0.9800
   Min. Damping (>=0)   DampMin         ....    0.0000
   Turn off err/grad.   DampErr         ....    0.1000
 Fernandez-Rico         CNVRico         .... off

SCF Procedure:
 Maximum # iterations   MaxIter         ....   125
 SCF integral mode      SCFMode         .... Conventional
 Integral Buffer length BufferLength    .... 1048576
 Integral index format  IndFormat       ....     0
 Integral value format  ValFormat       ....     0
 Integral Storage       Thresh          ....  1.000e-08 Eh

Convergence Tolerance:
 Convergence Check Mode ConvCheckMode   .... Total+1el-Energy
 Energy Change          TolE            ....  1.000e-06 Eh
 1-El. energy change                    ....  1.000e-03 Eh
 Orbital Gradient       TolG            ....  5.000e-05
 Orbital Rotation angle TolX            ....  5.000e-05
 DIIS Error             TolErr          ....  1.000e-06


Diagonalization of the overlap matrix:
Smallest eigenvalue                        ... 1.698e-01
Time for diagonalization                   ...    0.001 sec
Threshold for overlap eigenvalues          ... 1.000e-08
Number of eigenvalues below threshold      ... 0
Time for construction of square roots      ...    0.000 sec
Total time needed                          ...    0.001 sec

-------------------------------
INITIAL GUESS: EXTENDED HUECKEL
-------------------------------
EHT matrix was read from disk
EHT matrix was diagonalized
Initial density was built
                      ------------------
                      INITIAL GUESS DONE
                      ------------------

 InCore treatment chosen:
   Memory dedicated               ...    1024 MB
   Memory needed                  ...      0 MB
   Number of tiny    integrals    ...       0
   Number of small   integrals    ...       0
   Number of regular integrals    ...    1896

--------------
SCF ITERATIONS
--------------
ITER       Energy         Delta-E        Max-DP      RMS-DP      [F,P]     Damp
  0     -5.5747421076   0.000000000000 0.03935719  0.00202726  0.1016497 0.7000
  1     -5.5954481482  -0.020706040586 0.03607985  0.00190683  0.0726731 0.7000
                               ***Turning on DIIS***
  2     -5.6107590572  -0.015310908939 0.08814846  0.00488607  0.0475872 0.0000
  3     -5.6510761995  -0.040317142316 0.01614340  0.00100444  0.0205690 0.0000
  4     -5.6433944958   0.007681703687 0.00985710  0.00068621  0.0058353 0.0000
  5     -5.6517505342  -0.008356038441 0.00652370  0.00046395  0.0032950 0.0000
  6     -5.6530752121  -0.001324677890 0.00425268  0.00033133  0.0016488 0.0000
                      *** Initiating the SOSCF procedure ***
                           *** Shutting down DIIS ***
                      *** Re-Reading the Fockian *** 
                      *** Removing any level shift *** 
ITER      Energy       Delta-E        Grad      Rot      Max-DP    RMS-DP
  7     -5.65095591   0.0021193035  0.002992  0.002992  0.004130  0.000311
  8     -5.64999506   0.0009608465  0.000242  0.000648  0.000445  0.000032
                 **** Energy Check signals convergence ****
              ***Rediagonalizing the Fockian in SOSCF/NRSCF***

               *****************************************************
               *                     SUCCESS                       *
               *           SCF CONVERGED AFTER   9 CYCLES          *
               *****************************************************


----------------
TOTAL SCF ENERGY
----------------

Total Energy       :           -5.64999586 Eh            -153.74420 eV

Components:
Nuclear Repulsion  :          298.79417471 Eh            8130.60285 eV
Electronic Energy  :         -304.44417057 Eh           -8284.34705 eV

One Electron Energy:         -563.63932430 Eh          -15337.40575 eV
Two Electron Energy:          259.19515373 Eh            7053.05870 eV


---------------
SCF CONVERGENCE
---------------

  Last Energy change         ...   -7.9896e-07  Tolerance :   1.0000e-06
  Last MAX-Density change    ...    4.1902e-04  Tolerance :   1.0000e-05
  Last RMS-Density change    ...    2.5879e-05  Tolerance :   1.0000e-06
  Last Orbital Gradient      ...    1.3406e-04  Tolerance :   5.0000e-05
  Last Orbital Rotation      ...    5.3958e-04  Tolerance :   5.0000e-05

             **** THE GBW FILE WAS UPDATED (/Users/mattyjones/GoogleDrive/Boise/Code/MorphCT/tests/output_EZ/donor_polymer/chromophores/input_orca/single/00026.gbw) ****
             **** DENSITY FILE WAS UPDATED (/Users/mattyjones/GoogleDrive/Boise/Code/MorphCT/tests/output_EZ/donor_polymer/chromophores/input_orca/single/00026.scfp.tmp) ****
             **** ENERGY FILE WAS UPDATED (/Users/mattyjones/GoogleDrive/Boise/Code/MorphCT/tests/output_EZ/donor_polymer/chromophores/input_orca/single/00026.en.tmp) ****
----------------
ORBITAL ENERGIES
----------------

  NO   OCC          E(Eh)            E(eV) 
   0   2.0000      -1.557197       -42.3735 
   1   2.0000      -1.416094       -38.5339 
   2   2.0000      -1.285867       -34.9902 
   3   2.0000      -1.175994       -32.0004 
   4   2.0000      -1.112953       -30.2850 
   5   2.0000      -1.040757       -28.3204 
   6   2.0000      -0.950217       -25.8567 
   7   2.0000      -0.903693       -24.5907 
   8   2.0000      -0.865726       -23.5576 
   9   2.0000      -0.833415       -22.6784 
  10   2.0000      -0.781546       -21.2670 
  11   2.0000      -0.731698       -19.9105 
  12   2.0000      -0.702357       -19.1121 
  13   2.0000      -0.666348       -18.1323 
  14   2.0000      -0.649037       -17.6612 
  15   2.0000      -0.609702       -16.5908 
  16   2.0000      -0.586023       -15.9465 
  17   2.0000      -0.575669       -15.6648 
  18   2.0000      -0.570728       -15.5303 
  19   2.0000      -0.550759       -14.9869 
  20   2.0000      -0.540199       -14.6996 
  21   2.0000      -0.511995       -13.9321 
  22   2.0000      -0.509026       -13.8513 
  23   2.0000      -0.497978       -13.5507 
  24   2.0000      -0.495954       -13.4956 
  25   2.0000      -0.478088       -13.0094 
  26   2.0000      -0.468163       -12.7394 
  27   2.0000      -0.458951       -12.4887 
  28   2.0000      -0.436968       -11.8905 
  29   2.0000      -0.356734        -9.7072 
  30   2.0000      -0.304521        -8.2864 
  31   0.0000       0.007948         0.2163 
  32   0.0000       0.069366         1.8875 
  33   0.0000       0.079609         2.1663 
  34   0.0000       0.090134         2.4527 
  35   0.0000       0.105071         2.8591 
  36   0.0000       0.108580         2.9546 
  37   0.0000       0.123531         3.3614 
  38   0.0000       0.141111         3.8398 
  39   0.0000       0.157422         4.2837 
  40   0.0000       0.163537         4.4501 
  41   0.0000       0.168449         4.5837 
  42   0.0000       0.205675         5.5967 
  43   0.0000       0.231482         6.2989 
  44   0.0000       0.232941         6.3386 
  45   0.0000       0.235250         6.4015 
  46   0.0000       0.239541         6.5183 
  47   0.0000       0.241833         6.5806 
  48   0.0000       0.245416         6.6781 
  49   0.0000       0.247779         6.7424 
  50   0.0000       0.255253         6.9458 
  51   0.0000       0.266956         7.2642 
  52   0.0000       0.267976         7.2920 
  53   0.0000       0.285953         7.7812 
  54   0.0000       0.306431         8.3384 
  55   0.0000       0.310481         8.4486 
  56   0.0000       0.336822         9.1654 
  57   0.0000       0.352207         9.5840 
  58   0.0000       0.408711        11.1216 
  59   0.0000       0.431228        11.7343 
-------
TIMINGS
-------

Total SCF time: 0 days 0 hours 0 min 0 sec 

Total time                  ....       0.055 sec
Sum of individual times     ....       0.046 sec  ( 84.0%)

Fock matrix formation       ....       0.035 sec  ( 63.8%)
Diagonalization             ....       0.005 sec  (  8.3%)
Density matrix formation    ....       0.001 sec  (  1.1%)
Population analysis         ....       0.000 sec  (  0.0%)
Initial guess               ....       0.001 sec  (  1.0%)
Orbital Transformation      ....       0.000 sec  (  0.0%)
Orbital Orthonormalization  ....       0.000 sec  (  0.0%)
DIIS solution               ....       0.004 sec  (  7.7%)
SOSCF solution              ....       0.001 sec  (  2.0%)

-------------------------   --------------------
FINAL SINGLE POINT ENERGY        -5.649995861137
-------------------------   --------------------


                            ***************************************
                            *     ORCA property calculations      *
                            ***************************************

                                    ---------------------
                                    Active property flags
                                    ---------------------
   (+) Dipole Moment


------------------------------------------------------------------------------
                       ORCA ELECTRIC PROPERTIES CALCULATION
------------------------------------------------------------------------------

Dipole Moment Calculation                       ... on
Quadrupole Moment Calculation                   ... off
Polarizability Calculation                      ... off
GBWName                                         ... /Users/mattyjones/GoogleDrive/Boise/Code/MorphCT/tests/output_EZ/donor_polymer/chromophores/input_orca/single/00026.gbw
Electron density file                           ... /Users/mattyjones/GoogleDrive/Boise/Code/MorphCT/tests/output_EZ/donor_polymer/chromophores/input_orca/single/00026.scfp.tmp

-------------
DIPOLE MOMENT
-------------
                                X             Y             Z
Electronic contribution:    -92.69380     -70.38886     -64.93284
Nuclear contribution   :     49.79773      37.90445      34.57753
                        -----------------------------------------
Total Dipole Moment    :    -42.89608     -32.48441     -30.35531
                        -----------------------------------------
Magnitude (a.u.)       :     61.77989
Magnitude (Debye)      :    157.03201


Timings for individual modules:

Sum of individual times         ...        0.120 sec (=   0.002 min)
STO integral calculation        ...        0.034 sec (=   0.001 min)  28.8 %
SCF iterations                  ...        0.085 sec (=   0.001 min)  71.2 %
                             ****ORCA TERMINATED NORMALLY****
TOTAL RUN TIME: 0 days 0 hours 0 minutes 0 seconds 473 msec

