
                                 *****************
                                 * O   R   C   A *
                                 *****************

           --- An Ab Initio, DFT and Semiempirical electronic structure package ---

                  #######################################################
                  #                        -***-                        #
                  #  Department of molecular theory and spectroscopy    #
                  #              Directorship: Frank Neese              #
                  # Max Planck Institute for Chemical Energy Conversion #
                  #                  D-45470 Muelheim/Ruhr              #
                  #                       Germany                       #
                  #                                                     #
                  #                  All rights reserved                #
                  #                        -***-                        #
                  #######################################################


                         Program Version 4.0.1.2 - RELEASE -


 With contributions from (in alphabetic order):
   Daniel Aravena         : Magnetic Properties
   Michael Atanasov       : Ab Initio Ligand Field Theory
   Ute Becker             : Parallelization
   Martin Brehm           : Molecular dynamics
   Dmytro Bykov           : SCF Hessian
   Vijay G. Chilkuri      : MRCI spin determinant printing
   Dipayan Datta          : RHF DLPNO-CCSD density
   Achintya Kumar Dutta   : EOM-CC, STEOM-CC
   Dmitry Ganyushin       : Spin-Orbit,Spin-Spin,Magnetic field MRCI
   Yang Guo               : DLPNO-NEVPT2, CIM, IAO-localization
   Andreas Hansen         : Spin unrestricted coupled pair/coupled cluster methods
   Lee Huntington         : MR-EOM, pCC
   Robert Izsak           : Overlap fitted RIJCOSX, COSX-SCS-MP3, EOM
   Christian Kollmar      : KDIIS, OOCD, Brueckner-CCSD(T), CCSD density
   Simone Kossmann        : Meta GGA functionals, TD-DFT gradient, OOMP2, MP2 Hessian
   Martin Krupicka        : AUTO-CI
   Dagmar Lenk            : GEPOL surface
   Dimitrios Liakos       : Extrapolation schemes; parallel MDCI
   Dimitrios Manganas     : ROCIS; embedding schemes
   Dimitrios Pantazis     : SARC Basis sets
   Taras Petrenko         : DFT Hessian,TD-DFT gradient, ASA, ECA, R-Raman, ABS, FL, XAS/XES, NRVS
   Peter Pinski           : DLPNO-MP2
   Christoph Reimann      : Effective Core Potentials
   Marius Retegan         : Local ZFS, SOC
   Christoph Riplinger    : Optimizer, TS searches, QM/MM, DLPNO-CCSD(T), (RO)-DLPNO pert. Triples
   Tobias Risthaus        : Range-separated hybrids, TD-DFT gradient, RPA, STAB
   Michael Roemelt        : Restricted open shell CIS
   Masaaki Saitow         : Open-shell DLPNO
   Barbara Sandhoefer     : DKH picture change effects
   Kantharuban Sivalingam : CASSCF convergence, NEVPT2, FIC-MRCI
   Georgi Stoychev        : AutoAux
   Boris Wezisla          : Elementary symmetry handling
   Frank Wennmohs         : Technical directorship


 We gratefully acknowledge several colleagues who have allowed us to
 interface, adapt or use parts of their codes:
   Stefan Grimme, W. Hujo, H. Kruse,             : VdW corrections, initial TS optimization,
                  C. Bannwarth                     DFT functionals, gCP, sTDA/sTD-DF
   Ed Valeev                                     : LibInt (2-el integral package), F12 methods
   Garnet Chan, S. Sharma, J. Yang, R. Olivares  : DMRG
   Ulf Ekstrom                                   : XCFun DFT Library
   Mihaly Kallay                                 : mrcc  (arbitrary order and MRCC methods)
   Andreas Klamt, Michael Diedenhofen            : otool_cosmo (COSMO solvation model)
   Jiri Pittner, Ondrej Demel                    : Mk-CCSD
   Frank Weinhold                                : gennbo (NPA and NBO analysis)
   Christopher J. Cramer and Donald G. Truhlar   : smd solvation model


 Your calculation uses the libint2 library for the computation of 2-el integrals
 For citations please refer to: http://libint.valeyev.net

 This ORCA versions uses:
   CBLAS   interface :  Fast vector & matrix operations
   LAPACKE interface :  Fast linear algebra routines
   SCALAPACK package :  Parallel linear algebra routines


leaving
Your calculation utilizes the basis: def2-SVP
   F. Weigend and R. Ahlrichs, Phys. Chem. Chem. Phys. 7, 3297 (2005).

================================================================================
                                        WARNINGS
                       Please study these warnings very carefully!
================================================================================

Warning: TCutStore was < 0. Adjusted to Thresh (uncritical)

WARNING: Direct SCF is incompatible with Method<>HF and Method<>DFT
  ===> : conventional SCF is chosen

WARNING: The NDO methods need Guess=HUECKEL or Guess=HCORE or Guess=MOREAD
  ===> : Guess is set to Hueckel

WARNING: The NDO methods need %rel::SOCType==1
  ===> : %rel::SOCType is set to 1

WARNING: The NDO methods cannot have frozencore=1
  ===> : %method FrozenCore=0 end

INFO   : the flag for use of LIBINT has been found!

================================================================================
                                       INPUT FILE
================================================================================
NAME = /home/mattyjones/Software/morphct/tests/output_EZ/donor_polymer/chromophores/input_orca/single/00024.inp
|  1> # ================================================================
|  2> # Orca input file made by Matty Jones
|  3> # ================================================================
|  4> ! ZINDO/S 
|  5> ! NOPOP
|  6> ! NOMOPRINT
|  7> * xyz 0   1
|  8>  C  -2.14875  -3.70057  1.48333
|  9>  C  -2.05683  -2.47834  0.81581
| 10>  C  -2.48307  -1.35572  1.59189
| 11>  C  -2.91374  -1.69320  2.87873
| 12>  S  -2.74684  -3.33966  2.98704
| 13>  H  -2.11870  -2.45105  -0.34005
| 14>  C  -2.36262  0.07369  0.83863
| 15>  C  -0.88829  0.03071  -0.09052
| 16>  C  -0.01263  1.07483  -1.12269
| 17>  H  -0.64399  2.02934  -1.26693
| 18>  H  0.08531  0.53590  -2.14286
| 19>  H  -0.11204  -0.31582  0.69252
| 20>  H  -1.09073  -0.82829  -0.83945
| 21>  H  -3.24787  0.23968  0.11414
| 22>  H  -2.29117  0.94700  1.59052
| 23>  C  1.47492  1.46445  -0.58302
| 24>  C  2.62728  1.59541  -1.82129
| 25>  C  4.19460  1.86401  -1.27017
| 26>  H  4.15970  2.42270  -0.25783
| 27>  H  4.77159  2.49980  -2.04595
| 28>  H  4.72746  0.84515  -1.13206
| 29>  H  2.62131  0.61418  -2.42489
| 30>  H  2.32483  2.47224  -2.50348
| 31>  H  1.86070  0.66231  0.15172
| 32>  H  1.43212  2.48357  -0.03934
| 33>  H  -1.89064  -4.65774  1.10810
| 34>  H  -3.27191  -1.03458  3.62809
| 35> *
| 36> 
| 37>                          ****END OF INPUT****
================================================================================

                       ****************************
                       * Single Point Calculation *
                       ****************************

---------------------------------
CARTESIAN COORDINATES (ANGSTROEM)
---------------------------------
  C     -2.148750   -3.700570    1.483330
  C     -2.056830   -2.478340    0.815810
  C     -2.483070   -1.355720    1.591890
  C     -2.913740   -1.693200    2.878730
  S     -2.746840   -3.339660    2.987040
  H     -2.118700   -2.451050   -0.340050
  C     -2.362620    0.073690    0.838630
  C     -0.888290    0.030710   -0.090520
  C     -0.012630    1.074830   -1.122690
  H     -0.643990    2.029340   -1.266930
  H      0.085310    0.535900   -2.142860
  H     -0.112040   -0.315820    0.692520
  H     -1.090730   -0.828290   -0.839450
  H     -3.247870    0.239680    0.114140
  H     -2.291170    0.947000    1.590520
  C      1.474920    1.464450   -0.583020
  C      2.627280    1.595410   -1.821290
  C      4.194600    1.864010   -1.270170
  H      4.159700    2.422700   -0.257830
  H      4.771590    2.499800   -2.045950
  H      4.727460    0.845150   -1.132060
  H      2.621310    0.614180   -2.424890
  H      2.324830    2.472240   -2.503480
  H      1.860700    0.662310    0.151720
  H      1.432120    2.483570   -0.039340
  H     -1.890640   -4.657740    1.108100
  H     -3.271910   -1.034580    3.628090

----------------------------
CARTESIAN COORDINATES (A.U.)
----------------------------
  NO LB      ZA    FRAG     MASS         X           Y           Z
   0 C     4.0000    0    12.011   -4.060549   -6.993064    2.803087
   1 C     4.0000    0    12.011   -3.886845   -4.683384    1.541657
   2 C     4.0000    0    12.011   -4.692322   -2.561940    3.008236
   3 C     4.0000    0    12.011   -5.506171   -3.199684    5.440011
   4 S     6.0000    0    32.060   -5.190775   -6.311043    5.644688
   5 H     1.0000    0     1.008   -4.003763   -4.631813   -0.642601
   6 C     4.0000    0    12.011   -4.464705    0.139254    1.584781
   7 C     4.0000    0    12.011   -1.678625    0.058033   -0.171058
   8 C     4.0000    0    12.011   -0.023867    2.031134   -2.121577
   9 H     1.0000    0     1.008   -1.216965    3.834897   -2.394151
  10 H     1.0000    0     1.008    0.161213    1.012704   -4.049419
  11 H     1.0000    0     1.008   -0.211725   -0.596813    1.308673
  12 H     1.0000    0     1.008   -2.061181   -1.565241   -1.586331
  13 H     1.0000    0     1.008   -6.137585    0.452930    0.215693
  14 H     1.0000    0     1.008   -4.329684    1.789571    3.005647
  15 C     4.0000    0    12.011    2.787195    2.767409   -1.101748
  16 C     4.0000    0    12.011    4.964840    3.014888   -3.441739
  17 C     4.0000    0    12.011    7.926645    3.522468   -2.400273
  18 H     1.0000    0     1.008    7.860694    4.578240   -0.487228
  19 H     1.0000    0     1.008    9.016998    4.723937   -3.866285
  20 H     1.0000    0     1.008    8.933605    1.597102   -2.139283
  21 H     1.0000    0     1.008    4.953558    1.160632   -4.582378
  22 H     1.0000    0     1.008    4.393292    4.671857   -4.730892
  23 H     1.0000    0     1.008    3.516213    1.251585    0.286709
  24 H     1.0000    0     1.008    2.706315    4.693267   -0.074342
  25 H     1.0000    0     1.008   -3.572792   -8.801853    2.094006
  26 H     1.0000    0     1.008   -6.183014   -1.955073    6.856096

--------------------------------
INTERNAL COORDINATES (ANGSTROEM)
--------------------------------
 C      0   0   0     0.000000000000     0.00000000     0.00000000
 C      1   0   0     1.395664146455     0.00000000     0.00000000
 C      2   1   0     1.429774936275   114.10167905     0.00000000
 C      3   2   1     1.398329927056   113.69326349     0.00000000
 S      1   2   3     1.658044462703   105.47967011     0.00000000
 H      2   1   3     1.157836335844   119.64248133   206.59715824
 C      3   2   1     1.620222755735   114.72020267   179.16442212
 C      7   3   2     1.743219995239   106.79355333   321.61225844
 C      8   7   3     1.709485863908   137.73052744   180.98563623
 H      9   8   7     1.153477337142   107.49082331   355.00339026
 H      9   8   7     1.157922543783   106.91852451   238.39211383
 H      8   7   3     1.155767599909   102.37499997   309.23712976
 H      8   7   3     1.157479632002   102.43036554    62.67839230
 H      7   3   2     1.155900515918   111.17087524    79.78797327
 H      7   3   2     1.154605573648   111.66254292   203.44017004
 C      9   8   7     1.629678635744   114.43374513   117.57756820
 C     16   9   8     1.696583827608   113.37497891   143.48188101
 C     17  16   9     1.682965001656   113.94522538   185.07342341
 H     18  17  16     1.156799378328   109.60658043   331.71111250
 H     18  17  16     1.157143462411   109.42158915   211.43090751
 H     18  17  16     1.158054338665   109.09612102    91.64539610
 H     17  16   9     1.152033382242   108.24854930   305.48936334
 H     17  16   9     1.151386141787   108.22814659    64.30567140
 H     16   9   8     1.154165350199   110.47212566    23.47952263
 H     16   9   8     1.155865630945   109.43617744   263.45172735
 H      1   2   3     1.059996572589   127.26028819   179.99973275
 H      4   3   2     1.060003048533   127.20636066   180.00067523

---------------------------
INTERNAL COORDINATES (A.U.)
---------------------------
 C      0   0   0     0.000000000000     0.00000000     0.00000000
 C      1   0   0     2.637423011733     0.00000000     0.00000000
 C      2   1   0     2.701883062704   114.10167905     0.00000000
 C      3   2   1     2.642460607002   113.69326349     0.00000000
 S      1   2   3     3.133249952373   105.47967011     0.00000000
 H      2   1   3     2.187993582647   119.64248133   206.59715824
 C      3   2   1     3.061777284285   114.72020267   179.16442212
 C      7   3   2     3.294208382177   106.79355333   321.61225844
 C      8   7   3     3.230460112595   137.73052744   180.98563623
 H      9   8   7     2.179756268883   107.49082331   355.00339026
 H      9   8   7     2.188156492043   106.91852451   238.39211383
 H      8   7   3     2.184084238288   102.37499997   309.23712976
 H      8   7   3     2.187319510076   102.43036554    62.67839230
 H      7   3   2     2.184335413144   111.17087524    79.78797327
 H      7   3   2     2.181888326895   111.66254292   203.44017004
 C      9   8   7     3.079646307858   114.43374513   117.57756820
 C     16   9   8     3.206078797418   113.37497891   143.48188101
 C     17  16   9     3.180342946105   113.94522538   185.07342341
 H     18  17  16     2.186034016930   109.60658043   331.71111250
 H     18  17  16     2.186684241614   109.42158915   211.43090751
 H     18  17  16     2.188405548275   109.09612102    91.64539610
 H     17  16   9     2.177027589572   108.24854930   305.48936334
 H     17  16   9     2.175804482370   108.22814659    64.30567140
 H     16   9   8     2.181056425137   110.47212566    23.47952263
 H     16   9   8     2.184269490098   109.43617744   263.45172735
 H      1   2   3     2.003103225088   127.26028819   179.99973275
 H      4   3   2     2.003115462850   127.20636066   180.00067523

----------------------------
SLATER BASIS SET DIM=  60
----------------------------
  0 C     2 shells
 l=0 nsto= 1
    2       1.625000000000        1.000000000000
 l=1 nsto= 1
    2       1.625000000000        1.000000000000
  1 C     2 shells
 l=0 nsto= 1
    2       1.625000000000        1.000000000000
 l=1 nsto= 1
    2       1.625000000000        1.000000000000
  2 C     2 shells
 l=0 nsto= 1
    2       1.625000000000        1.000000000000
 l=1 nsto= 1
    2       1.625000000000        1.000000000000
  3 C     2 shells
 l=0 nsto= 1
    2       1.625000000000        1.000000000000
 l=1 nsto= 1
    2       1.625000000000        1.000000000000
  4 S     2 shells
 l=0 nsto= 1
    3       1.925000000000        1.000000000000
 l=1 nsto= 1
    3       1.925000000000        1.000000000000
  5 H     1 shells
 l=0 nsto= 1
    1       1.200000000000        1.000000000000
  6 C     2 shells
 l=0 nsto= 1
    2       1.625000000000        1.000000000000
 l=1 nsto= 1
    2       1.625000000000        1.000000000000
  7 C     2 shells
 l=0 nsto= 1
    2       1.625000000000        1.000000000000
 l=1 nsto= 1
    2       1.625000000000        1.000000000000
  8 C     2 shells
 l=0 nsto= 1
    2       1.625000000000        1.000000000000
 l=1 nsto= 1
    2       1.625000000000        1.000000000000
  9 H     1 shells
 l=0 nsto= 1
    1       1.200000000000        1.000000000000
 10 H     1 shells
 l=0 nsto= 1
    1       1.200000000000        1.000000000000
 11 H     1 shells
 l=0 nsto= 1
    1       1.200000000000        1.000000000000
 12 H     1 shells
 l=0 nsto= 1
    1       1.200000000000        1.000000000000
 13 H     1 shells
 l=0 nsto= 1
    1       1.200000000000        1.000000000000
 14 H     1 shells
 l=0 nsto= 1
    1       1.200000000000        1.000000000000
 15 C     2 shells
 l=0 nsto= 1
    2       1.625000000000        1.000000000000
 l=1 nsto= 1
    2       1.625000000000        1.000000000000
 16 C     2 shells
 l=0 nsto= 1
    2       1.625000000000        1.000000000000
 l=1 nsto= 1
    2       1.625000000000        1.000000000000
 17 C     2 shells
 l=0 nsto= 1
    2       1.625000000000        1.000000000000
 l=1 nsto= 1
    2       1.625000000000        1.000000000000
 18 H     1 shells
 l=0 nsto= 1
    1       1.200000000000        1.000000000000
 19 H     1 shells
 l=0 nsto= 1
    1       1.200000000000        1.000000000000
 20 H     1 shells
 l=0 nsto= 1
    1       1.200000000000        1.000000000000
 21 H     1 shells
 l=0 nsto= 1
    1       1.200000000000        1.000000000000
 22 H     1 shells
 l=0 nsto= 1
    1       1.200000000000        1.000000000000
 23 H     1 shells
 l=0 nsto= 1
    1       1.200000000000        1.000000000000
 24 H     1 shells
 l=0 nsto= 1
    1       1.200000000000        1.000000000000
 25 H     1 shells
 l=0 nsto= 1
    1       1.200000000000        1.000000000000
 26 H     1 shells
 l=0 nsto= 1
    1       1.200000000000        1.000000000000
------------------------------------------------------------------------------
                           ORCA NDO INTEGRAL CALCULATION
------------------------------------------------------------------------------

--------------
NDO PARAMETERS
--------------

Gamma integral treatment              ... Mataga-Nishimoto
Nuclear repulsuion treatment          ... Direct (ZA*ZB/RAB)
Interaction factors:
s-s (sigma) =    1.0000
s-p (sigma) =    1.0000
s-d (sigma) =    1.0000
p-p (sigma) =    1.2670  p-p(pi) =    0.5850
p-d (sigma) =    1.0000  p-d(pi) =    1.0000
d-d (sigma) =    1.0000  d-d(pi) =    1.0000 d-d (delta) =    1.0000

fGamma parameter for Mataga-Nishimoto gamma integrals:    1.2000

--------------------------
Parameters for Element H :
--------------------------
 One-electron parameters (in eV)
  U(s)  =   -13.060000 Beta(s) =    12.000000 Neff(s) =     1.000000
 One-center electron repulsion parameters (in eV)
  G(s,s)=    12.850000
--------------------------
Parameters for Element C :
--------------------------
 One-electron parameters (in eV)
  U(s)  =   -50.870766 Beta(s) =    17.000000 Neff(s) =     2.000000
  U(p)  =   -41.599980 Beta(p) =    17.000000 Neff(p) =     2.000000 
 One-center electron repulsion parameters (in eV)
  G(s,s)=    11.110000
  G(s,p)=    11.110000 G(p,p)  =    11.110000
 Slater-Condon parameters (in eV)
 F2(p,p)=     4.5098 G1(s,p)=    6.8977
--------------------------
Parameters for Element S :
--------------------------
 One-electron parameters (in eV)
  U(s)  =   -69.509597 Beta(s) =    15.000000 Neff(s) =     2.000000
  U(p)  =   -60.725746 Beta(p) =    15.000000 Neff(p) =     4.000000 
 One-center electron repulsion parameters (in eV)
  G(s,s)=    10.090000
  G(s,p)=    10.090000 G(p,p)  =    10.090000
 Slater-Condon parameters (in eV)
 F2(p,p)=     4.5377 G1(s,p)=    3.0756

 Number of atoms                    ....   27
 Number of basis functions          ....   60

 Overlap integrals                  .... done
 One electron matrix                .... done
 Nuclear repulsion                  .... done
 Integral list                      .... done
 Electron-electron repulsion        .... done
-------------------------------------------------------------------------------
                                 ORCA SCF
-------------------------------------------------------------------------------

------------
SCF SETTINGS
------------
Hamiltonian:
 ZDO-Hamiltonian        Method          .... INDO


General Settings:
 Integral files         IntName         .... /home/mattyjones/Software/morphct/tests/output_EZ/donor_polymer/chromophores/input_orca/single/00024
 Hartree-Fock type      HFTyp           .... RHF
 Total Charge           Charge          ....    0
 Multiplicity           Mult            ....    1
 Number of Electrons    NEL             ....   62
 Basis Dimension        Dim             ....   60
 Nuclear Repulsion      ENuc            ....    290.7670145418 Eh

Convergence Acceleration:
 DIIS                   CNVDIIS         .... on
   Start iteration      DIISMaxIt       ....    12
   Startup error        DIISStart       ....  0.200000
   # of expansion vecs  DIISMaxEq       ....     5
   Bias factor          DIISBfac        ....   1.050
   Max. coefficient     DIISMaxC        ....  10.000
 Newton-Raphson         CNVNR           .... off
 SOSCF                  CNVSOSCF        .... on
   Start iteration      SOSCFMaxIt      ....   150
   Startup grad/error   SOSCFStart      ....  0.003300
 Level Shifting         CNVShift        .... on
   Level shift para.    LevelShift      ....    0.2500
   Turn off err/grad.   ShiftErr        ....    0.0010
 Zerner damping         CNVZerner       .... off
 Static damping         CNVDamp         .... on
   Fraction old density DampFac         ....    0.7000
   Max. Damping (<1)    DampMax         ....    0.9800
   Min. Damping (>=0)   DampMin         ....    0.0000
   Turn off err/grad.   DampErr         ....    0.1000
 Fernandez-Rico         CNVRico         .... off

SCF Procedure:
 Maximum # iterations   MaxIter         ....   125
 SCF integral mode      SCFMode         .... Conventional
 Integral Buffer length BufferLength    .... 1048576
 Integral index format  IndFormat       ....     0
 Integral value format  ValFormat       ....     0
 Integral Storage       Thresh          ....  1.000e-08 Eh

Convergence Tolerance:
 Convergence Check Mode ConvCheckMode   .... Total+1el-Energy
 Convergence forced     ConvForced      .... 0
 Energy Change          TolE            ....  1.000e-06 Eh
 1-El. energy change                    ....  1.000e-03 Eh
 Orbital Gradient       TolG            ....  5.000e-05
 Orbital Rotation angle TolX            ....  5.000e-05
 DIIS Error             TolErr          ....  1.000e-06


Diagonalization of the overlap matrix:
Smallest eigenvalue                        ... 1.693e-01
Time for diagonalization                   ...    0.001 sec
Threshold for overlap eigenvalues          ... 1.000e-08
Number of eigenvalues below threshold      ... 0
Time for construction of square roots      ...    0.000 sec
Total time needed                          ...    0.001 sec

-------------------------------
INITIAL GUESS: EXTENDED HUECKEL
-------------------------------
EHT matrix was read from disk
EHT matrix was diagonalized
Initial density was built
                      ------------------
                      INITIAL GUESS DONE
                      ------------------

 InCore treatment chosen:
   Memory dedicated               ...    1024 MB
   Memory needed                  ...      0 MB
   Number of tiny    integrals    ...       0
   Number of small   integrals    ...       0
   Number of regular integrals    ...    1896

--------------
SCF ITERATIONS
--------------
ITER       Energy         Delta-E        Max-DP      RMS-DP      [F,P]     Damp
  0     -7.4948563259   0.000000000000 0.04517609  0.00207052  0.1160999 0.7000
  1     -7.5161597998  -0.021303473872 0.04414516  0.00195518  0.0793658 0.7000
                               ***Turning on DIIS***
  2     -7.5319239898  -0.015764190049 0.11648771  0.00502915  0.0480722 0.0000
  3     -7.5724356219  -0.040511632106 0.02083011  0.00106741  0.0217647 0.0000
  4     -7.5649061150   0.007529506946 0.01507429  0.00073635  0.0088359 0.0000
  5     -7.5742856320  -0.009379516989 0.01055330  0.00049860  0.0052162 0.0000
  6     -7.5754020272  -0.001116395250 0.00823850  0.00035512  0.0029564 0.0000
                      *** Initiating the SOSCF procedure ***
                           *** Shutting down DIIS ***
                      *** Re-Reading the Fockian *** 
                      *** Removing any level shift *** 
ITER      Energy       Delta-E        Grad      Rot      Max-DP    RMS-DP
  7     -7.57354386   0.0018581678  0.003090  0.003090  0.005021  0.000203
  8     -7.57241702   0.0011268426  0.000853  0.002395  0.002513  0.000095
  9     -7.57242534  -0.0000083237  0.000376  0.002390  0.002920  0.000104
 10     -7.57242849  -0.0000031543  0.000038  0.000084  0.000174  0.000007
                 **** Energy Check signals convergence ****
              ***Rediagonalizing the Fockian in SOSCF/NRSCF***

               *****************************************************
               *                     SUCCESS                       *
               *           SCF CONVERGED AFTER  11 CYCLES          *
               *****************************************************


----------------
TOTAL SCF ENERGY
----------------

Total Energy       :           -7.57242853 Eh            -206.05626 eV

Components:
Nuclear Repulsion  :          290.76701454 Eh            7912.17271 eV
Electronic Energy  :         -298.33944307 Eh           -8118.22897 eV
One Electron Energy:         -551.54865357 Eh          -15008.40188 eV
Two Electron Energy:          253.20921049 Eh            6890.17291 eV


---------------
SCF CONVERGENCE
---------------

  Last Energy change         ...   -3.6124e-08  Tolerance :   1.0000e-06
  Last MAX-Density change    ...    8.1497e-05  Tolerance :   1.0000e-05
  Last RMS-Density change    ...    2.7849e-06  Tolerance :   1.0000e-06
  Last Orbital Gradient      ...    1.2537e-05  Tolerance :   5.0000e-05
  Last Orbital Rotation      ...    3.5864e-05  Tolerance :   5.0000e-05

             **** THE GBW FILE WAS UPDATED (/home/mattyjones/Software/morphct/tests/output_EZ/donor_polymer/chromophores/input_orca/single/00024.gbw) ****
             **** DENSITY FILE WAS UPDATED (/home/mattyjones/Software/morphct/tests/output_EZ/donor_polymer/chromophores/input_orca/single/00024.scfp.tmp) ****
             **** ENERGY FILE WAS UPDATED (/home/mattyjones/Software/morphct/tests/output_EZ/donor_polymer/chromophores/input_orca/single/00024.en.tmp) ****
----------------
ORBITAL ENERGIES
----------------

  NO   OCC          E(Eh)            E(eV) 
   0   2.0000      -1.563618       -42.5482 
   1   2.0000      -1.394187       -37.9378 
   2   2.0000      -1.293482       -35.1974 
   3   2.0000      -1.191926       -32.4340 
   4   2.0000      -1.122343       -30.5405 
   5   2.0000      -1.015858       -27.6429 
   6   2.0000      -0.948067       -25.7982 
   7   2.0000      -0.891102       -24.2481 
   8   2.0000      -0.873241       -23.7621 
   9   2.0000      -0.835555       -22.7366 
  10   2.0000      -0.771628       -20.9971 
  11   2.0000      -0.728546       -19.8247 
  12   2.0000      -0.703297       -19.1377 
  13   2.0000      -0.672990       -18.3130 
  14   2.0000      -0.629656       -17.1338 
  15   2.0000      -0.627596       -17.0778 
  16   2.0000      -0.603613       -16.4251 
  17   2.0000      -0.576898       -15.6982 
  18   2.0000      -0.560089       -15.2408 
  19   2.0000      -0.554955       -15.1011 
  20   2.0000      -0.527203       -14.3459 
  21   2.0000      -0.509195       -13.8559 
  22   2.0000      -0.501888       -13.6571 
  23   2.0000      -0.495237       -13.4761 
  24   2.0000      -0.487189       -13.2571 
  25   2.0000      -0.479317       -13.0429 
  26   2.0000      -0.470561       -12.8046 
  27   2.0000      -0.452882       -12.3235 
  28   2.0000      -0.427914       -11.6441 
  29   2.0000      -0.349929        -9.5221 
  30   2.0000      -0.305182        -8.3044 
  31   0.0000       0.006333         0.1723 
  32   0.0000       0.060634         1.6499 
  33   0.0000       0.066519         1.8101 
  34   0.0000       0.090941         2.4746 
  35   0.0000       0.107045         2.9129 
  36   0.0000       0.107697         2.9306 
  37   0.0000       0.125817         3.4237 
  38   0.0000       0.140890         3.8338 
  39   0.0000       0.157097         4.2748 
  40   0.0000       0.167938         4.5698 
  41   0.0000       0.175863         4.7855 
  42   0.0000       0.201546         5.4844 
  43   0.0000       0.229031         6.2323 
  44   0.0000       0.236915         6.4468 
  45   0.0000       0.238468         6.4890 
  46   0.0000       0.239206         6.5091 
  47   0.0000       0.239859         6.5269 
  48   0.0000       0.241261         6.5650 
  49   0.0000       0.244697         6.6586 
  50   0.0000       0.248709         6.7677 
  51   0.0000       0.265094         7.2136 
  52   0.0000       0.266700         7.2573 
  53   0.0000       0.283827         7.7233 
  54   0.0000       0.307857         8.3772 
  55   0.0000       0.310358         8.4453 
  56   0.0000       0.334708         9.1079 
  57   0.0000       0.353333         9.6147 
  58   0.0000       0.419775        11.4226 
  59   0.0000       0.424012        11.5380 
-------
TIMINGS
-------

Total SCF time: 0 days 0 hours 0 min 0 sec 

Total time                  ....       0.099 sec
Sum of individual times     ....       0.061 sec  ( 61.5%)

Fock matrix formation       ....       0.038 sec  ( 38.6%)
Diagonalization             ....       0.006 sec  (  5.8%)
Density matrix formation    ....       0.000 sec  (  0.5%)
Population analysis         ....       0.000 sec  (  0.0%)
Initial guess               ....       0.001 sec  (  0.7%)
Orbital Transformation      ....       0.000 sec  (  0.0%)
Orbital Orthonormalization  ....       0.000 sec  (  0.0%)
DIIS solution               ....       0.004 sec  (  4.2%)
SOSCF solution              ....       0.012 sec  ( 11.7%)

-------------------------   --------------------
FINAL SINGLE POINT ENERGY        -7.572428530963
-------------------------   --------------------


                            ***************************************
                            *     ORCA property calculations      *
                            ***************************************

                                    ---------------------
                                    Active property flags
                                    ---------------------
   (+) Dipole Moment


------------------------------------------------------------------------------
                       ORCA ELECTRIC PROPERTIES CALCULATION
------------------------------------------------------------------------------

Dipole Moment Calculation                       ... on
Quadrupole Moment Calculation                   ... off
Polarizability Calculation                      ... off
GBWName                                         ... /home/mattyjones/Software/morphct/tests/output_EZ/donor_polymer/chromophores/input_orca/single/00024.gbw
Electron density file                           ... /home/mattyjones/Software/morphct/tests/output_EZ/donor_polymer/chromophores/input_orca/single/00024.scfp.tmp
The origin for moment calculation is the CENTER OF MASS  = (-1.522230, -1.550476  1.377612)

-------------
DIPOLE MOMENT
-------------
                                X             Y             Z
Electronic contribution:    -78.42386     -87.35089      77.96715
Nuclear contribution   :     42.52119      46.85962     -41.76441
                        -----------------------------------------
Total Dipole Moment    :    -35.90267     -40.49127      36.20274
                        -----------------------------------------
Magnitude (a.u.)       :     65.10901
Magnitude (Debye)      :    165.49395


Timings for individual modules:

Sum of individual times         ...        0.131 sec (=   0.002 min)
STO integral calculation        ...        0.021 sec (=   0.000 min)  15.9 %
SCF iterations                  ...        0.110 sec (=   0.002 min)  84.1 %
                             ****ORCA TERMINATED NORMALLY****
TOTAL RUN TIME: 0 days 0 hours 0 minutes 0 seconds 372 msec

