
                                 *****************
                                 * O   R   C   A *
                                 *****************

           --- An Ab Initio, DFT and Semiempirical electronic structure package ---

                  #######################################################
                  #                        -***-                        #
                  #  Department of molecular theory and spectroscopy    #
                  #              Directorship: Frank Neese              #
                  # Max Planck Institute for Chemical Energy Conversion #
                  #                  D-45470 Muelheim/Ruhr              #
                  #                       Germany                       #
                  #                                                     #
                  #                  All rights reserved                #
                  #                        -***-                        #
                  #######################################################


                         Program Version 4.0.1.2 - RELEASE -


 With contributions from (in alphabetic order):
   Daniel Aravena         : Magnetic Properties
   Michael Atanasov       : Ab Initio Ligand Field Theory
   Ute Becker             : Parallelization
   Martin Brehm           : Molecular dynamics
   Dmytro Bykov           : SCF Hessian
   Vijay G. Chilkuri      : MRCI spin determinant printing
   Dipayan Datta          : RHF DLPNO-CCSD density
   Achintya Kumar Dutta   : EOM-CC, STEOM-CC
   Dmitry Ganyushin       : Spin-Orbit,Spin-Spin,Magnetic field MRCI
   Yang Guo               : DLPNO-NEVPT2, CIM, IAO-localization
   Andreas Hansen         : Spin unrestricted coupled pair/coupled cluster methods
   Lee Huntington         : MR-EOM, pCC
   Robert Izsak           : Overlap fitted RIJCOSX, COSX-SCS-MP3, EOM
   Christian Kollmar      : KDIIS, OOCD, Brueckner-CCSD(T), CCSD density
   Simone Kossmann        : Meta GGA functionals, TD-DFT gradient, OOMP2, MP2 Hessian
   Martin Krupicka        : AUTO-CI
   Dagmar Lenk            : GEPOL surface
   Dimitrios Liakos       : Extrapolation schemes; parallel MDCI
   Dimitrios Manganas     : ROCIS; embedding schemes
   Dimitrios Pantazis     : SARC Basis sets
   Taras Petrenko         : DFT Hessian,TD-DFT gradient, ASA, ECA, R-Raman, ABS, FL, XAS/XES, NRVS
   Peter Pinski           : DLPNO-MP2
   Christoph Reimann      : Effective Core Potentials
   Marius Retegan         : Local ZFS, SOC
   Christoph Riplinger    : Optimizer, TS searches, QM/MM, DLPNO-CCSD(T), (RO)-DLPNO pert. Triples
   Tobias Risthaus        : Range-separated hybrids, TD-DFT gradient, RPA, STAB
   Michael Roemelt        : Restricted open shell CIS
   Masaaki Saitow         : Open-shell DLPNO
   Barbara Sandhoefer     : DKH picture change effects
   Kantharuban Sivalingam : CASSCF convergence, NEVPT2, FIC-MRCI
   Georgi Stoychev        : AutoAux
   Boris Wezisla          : Elementary symmetry handling
   Frank Wennmohs         : Technical directorship


 We gratefully acknowledge several colleagues who have allowed us to
 interface, adapt or use parts of their codes:
   Stefan Grimme, W. Hujo, H. Kruse,             : VdW corrections, initial TS optimization,
                  C. Bannwarth                     DFT functionals, gCP, sTDA/sTD-DF
   Ed Valeev                                     : LibInt (2-el integral package), F12 methods
   Garnet Chan, S. Sharma, J. Yang, R. Olivares  : DMRG
   Ulf Ekstrom                                   : XCFun DFT Library
   Mihaly Kallay                                 : mrcc  (arbitrary order and MRCC methods)
   Andreas Klamt, Michael Diedenhofen            : otool_cosmo (COSMO solvation model)
   Jiri Pittner, Ondrej Demel                    : Mk-CCSD
   Frank Weinhold                                : gennbo (NPA and NBO analysis)
   Christopher J. Cramer and Donald G. Truhlar   : smd solvation model


 Your calculation uses the libint2 library for the computation of 2-el integrals
 For citations please refer to: http://libint.valeyev.net

 This ORCA versions uses:
   CBLAS   interface :  Fast vector & matrix operations
   LAPACKE interface :  Fast linear algebra routines
   SCALAPACK package :  Parallel linear algebra routines


leaving
Your calculation utilizes the basis: def2-SVP
   F. Weigend and R. Ahlrichs, Phys. Chem. Chem. Phys. 7, 3297 (2005).

================================================================================
                                        WARNINGS
                       Please study these warnings very carefully!
================================================================================

Warning: TCutStore was < 0. Adjusted to Thresh (uncritical)

WARNING: Direct SCF is incompatible with Method<>HF and Method<>DFT
  ===> : conventional SCF is chosen

WARNING: The NDO methods need Guess=HUECKEL or Guess=HCORE or Guess=MOREAD
  ===> : Guess is set to Hueckel

WARNING: The NDO methods need %rel::SOCType==1
  ===> : %rel::SOCType is set to 1

WARNING: The NDO methods cannot have frozencore=1
  ===> : %method FrozenCore=0 end

INFO   : the flag for use of LIBINT has been found!

================================================================================
                                       INPUT FILE
================================================================================
NAME = /home/mattyjones/Software/morphct/tests/output_EZ/donor_polymer/chromophores/input_orca/single/00026.inp
|  1> # ================================================================
|  2> # Orca input file made by Matty Jones
|  3> # ================================================================
|  4> ! ZINDO/S 
|  5> ! NOPOP
|  6> ! NOMOPRINT
|  7> * xyz 0   1
|  8>  C  -1.93394  -3.42570  -2.39396
|  9>  C  -1.33627  -2.73084  -1.34141
| 10>  C  -2.17293  -1.73311  -0.75082
| 11>  C  -3.43763  -1.63966  -1.33999
| 12>  S  -3.45388  -2.78037  -2.54371
| 13>  H  -0.27197  -2.91952  -0.98586
| 14>  C  -1.74921  -0.76742  0.47581
| 15>  C  -0.42436  0.24568  0.18797
| 16>  C  -0.01506  1.34309  1.41485
| 17>  H  -0.98068  1.88665  1.74277
| 18>  H  0.40123  0.74345  2.30925
| 19>  H  0.49487  -0.41843  -0.00765
| 20>  H  -0.66952  0.85938  -0.75659
| 21>  H  -2.63093  -0.11244  0.85121
| 22>  H  -1.42748  -1.44255  1.38450
| 23>  C  1.08441  2.43454  0.90528
| 24>  C  2.68833  1.99056  1.17164
| 25>  C  3.29649  0.96969  -0.01782
| 26>  H  2.52887  0.86256  -0.87681
| 27>  H  3.49937  -0.07053  0.44934
| 28>  H  4.28405  1.40614  -0.43370
| 29>  H  3.32567  2.95194  1.18000
| 30>  H  2.76786  1.46927  2.19482
| 31>  H  0.90837  3.43688  1.45828
| 32>  H  0.95243  2.62120  -0.22916
| 33>  H  -1.50632  -4.20226  -2.97508
| 34>  H  -4.22177  -0.97821  -1.07313
| 35> *
| 36> 
| 37>                          ****END OF INPUT****
================================================================================

                       ****************************
                       * Single Point Calculation *
                       ****************************

---------------------------------
CARTESIAN COORDINATES (ANGSTROEM)
---------------------------------
  C     -1.933940   -3.425700   -2.393960
  C     -1.336270   -2.730840   -1.341410
  C     -2.172930   -1.733110   -0.750820
  C     -3.437630   -1.639660   -1.339990
  S     -3.453880   -2.780370   -2.543710
  H     -0.271970   -2.919520   -0.985860
  C     -1.749210   -0.767420    0.475810
  C     -0.424360    0.245680    0.187970
  C     -0.015060    1.343090    1.414850
  H     -0.980680    1.886650    1.742770
  H      0.401230    0.743450    2.309250
  H      0.494870   -0.418430   -0.007650
  H     -0.669520    0.859380   -0.756590
  H     -2.630930   -0.112440    0.851210
  H     -1.427480   -1.442550    1.384500
  C      1.084410    2.434540    0.905280
  C      2.688330    1.990560    1.171640
  C      3.296490    0.969690   -0.017820
  H      2.528870    0.862560   -0.876810
  H      3.499370   -0.070530    0.449340
  H      4.284050    1.406140   -0.433700
  H      3.325670    2.951940    1.180000
  H      2.767860    1.469270    2.194820
  H      0.908370    3.436880    1.458280
  H      0.952430    2.621200   -0.229160
  H     -1.506320   -4.202260   -2.975080
  H     -4.221770   -0.978210   -1.073130

----------------------------
CARTESIAN COORDINATES (A.U.)
----------------------------
  NO LB      ZA    FRAG     MASS         X           Y           Z
   0 C     4.0000    0    12.011   -3.654617   -6.473635   -4.523929
   1 C     4.0000    0    12.011   -2.525184   -5.160540   -2.534898
   2 C     4.0000    0    12.011   -4.106243   -3.275103   -1.418844
   3 C     4.0000    0    12.011   -6.496179   -3.098508   -2.532214
   4 S     6.0000    0    32.060   -6.526887   -5.254138   -4.806915
   5 H     1.0000    0     1.008   -0.513949   -5.517093   -1.863005
   6 C     4.0000    0    12.011   -3.305528   -1.450214    0.899151
   7 C     4.0000    0    12.011   -0.801924    0.464268    0.355212
   8 C     4.0000    0    12.011   -0.028459    2.538072    2.673679
   9 H     1.0000    0     1.008   -1.853217    3.565252    3.293358
  10 H     1.0000    0     1.008    0.758215    1.404917    4.363850
  11 H     1.0000    0     1.008    0.935169   -0.790718   -0.014456
  12 H     1.0000    0     1.008   -1.265209    1.623993   -1.429748
  13 H     1.0000    0     1.008   -4.971737   -0.212481    1.608554
  14 H     1.0000    0     1.008   -2.697546   -2.726024    2.616326
  15 C     4.0000    0    12.011    2.049238    4.600614    1.710731
  16 C     4.0000    0    12.011    5.080207    3.761613    2.214079
  17 C     4.0000    0    12.011    6.229463    1.832449   -0.033675
  18 H     1.0000    0     1.008    4.778872    1.630002   -1.656931
  19 H     1.0000    0     1.008    6.612851   -0.133282    0.849130
  20 H     1.0000    0     1.008    8.095681    2.657220   -0.819574
  21 H     1.0000    0     1.008    6.284606    5.578358    2.229877
  22 H     1.0000    0     1.008    5.230497    2.776518    4.147609
  23 H     1.0000    0     1.008    1.716571    6.494762    2.755750
  24 H     1.0000    0     1.008    1.799832    4.953350   -0.433050
  25 H     1.0000    0     1.008   -2.846532   -7.941121   -5.622086
  26 H     1.0000    0     1.008   -7.977989   -1.848549   -2.027922

--------------------------------
INTERNAL COORDINATES (ANGSTROEM)
--------------------------------
 C      0   0   0     0.000000000000     0.00000000     0.00000000
 C      1   0   0     1.395672365206     0.00000000     0.00000000
 C      2   1   0     1.429776785586   114.10120085     0.00000000
 C      3   2   1     1.398327673115   113.69346208     0.00000000
 S      1   2   3     1.658039045077   105.47988532     0.00000000
 H      2   1   3     1.137871009781   123.61688287   180.97739239
 C      3   2   1     1.617626956811   125.20681688   180.42354156
 C      7   3   2     1.692468906095   115.68532694    60.68785293
 C      8   7   3     1.696192716793   116.94641546   176.12922172
 H      9   8   7     1.155599837487   107.93509966   311.35309681
 H      9   8   7     1.154476874476   108.13961252    69.15173450
 H      8   7   3     1.150779331323   107.98390980   297.66668120
 H      8   7   3     1.152789967514   106.95045299    55.71615679
 H      7   3   2     1.160755839443   112.52738209   185.72547570
 H      7   3   2     1.176872221569   108.33878852   303.02967039
 C      9   8   7     1.630876748347   111.69501666   190.67512751
 C     16   9   8     1.685415455133   114.57519351   268.65884384
 C     17  16   9     1.681323655368   113.10185238    82.81427446
 H     18  17  16     1.156970665747   109.96716274     6.86362164
 H     18  17  16     1.158212592057   108.86487929   246.99502071
 H     18  17  16     1.157030479503   109.51061304   127.27134922
 H     17  16   9     1.153483276688   107.90322401   202.38519584
 H     17  16   9     1.151071499691   108.99759887   321.14505482
 H     16   9   8     1.158224743821   109.11836395   148.37047597
 H     16   9   8     1.157244481344   109.71583087    30.07524173
 H      1   2   3     1.060002241696   127.25978889   180.00049487
 H      4   3   2     1.060002783817   127.20644337   180.00052854

---------------------------
INTERNAL COORDINATES (A.U.)
---------------------------
 C      0   0   0     0.000000000000     0.00000000     0.00000000
 C      1   0   0     2.637438542922     0.00000000     0.00000000
 C      2   1   0     2.701886557395   114.10120085     0.00000000
 C      3   2   1     2.642456347671   113.69346208     0.00000000
 S      1   2   3     3.133239714544   105.47988532     0.00000000
 H      2   1   3     2.150264584214   123.61688287   180.97739239
 C      3   2   1     3.056871935220   125.20681688   180.42354156
 C      7   3   2     3.198302722698   115.68532694    60.68785293
 C      8   7   3     3.205339705090   116.94641546   176.12922172
 H      9   8   7     2.183767213254   107.93509966   311.35309681
 H      9   8   7     2.181645120705   108.13961252    69.15173450
 H      8   7   3     2.174657776777   107.98390980   297.66668120
 H      8   7   3     2.178457328533   106.95045299    55.71615679
 H      7   3   2     2.193510644896   112.52738209   185.72547570
 H      7   3   2     2.223966193384   108.33878852   303.02967039
 C      9   8   7     3.081910412556   111.69501666   190.67512751
 C     16   9   8     3.184973632079   114.57519351   268.65884384
 C     17  16   9     3.177241251129   113.10185238    82.81427446
 H     18  17  16     2.186357703243   109.96716274     6.86362164
 H     18  17  16     2.188704603847   108.86487929   246.99502071
 H     18  17  16     2.186470734861   109.51061304   127.27134922
 H     17  16   9     2.179767492999   107.90322401   202.38519584
 H     17  16   9     2.175209894977   108.99759887   321.14505482
 H     16   9   8     2.188727567353   109.11836395   148.37047597
 H     16   9   8     2.186875139731   109.71583087    30.07524173
 H      1   2   3     2.003113938148   127.25978889   180.00049487
 H      4   3   2     2.003114962608   127.20644337   180.00052854

----------------------------
SLATER BASIS SET DIM=  60
----------------------------
  0 C     2 shells
 l=0 nsto= 1
    2       1.625000000000        1.000000000000
 l=1 nsto= 1
    2       1.625000000000        1.000000000000
  1 C     2 shells
 l=0 nsto= 1
    2       1.625000000000        1.000000000000
 l=1 nsto= 1
    2       1.625000000000        1.000000000000
  2 C     2 shells
 l=0 nsto= 1
    2       1.625000000000        1.000000000000
 l=1 nsto= 1
    2       1.625000000000        1.000000000000
  3 C     2 shells
 l=0 nsto= 1
    2       1.625000000000        1.000000000000
 l=1 nsto= 1
    2       1.625000000000        1.000000000000
  4 S     2 shells
 l=0 nsto= 1
    3       1.925000000000        1.000000000000
 l=1 nsto= 1
    3       1.925000000000        1.000000000000
  5 H     1 shells
 l=0 nsto= 1
    1       1.200000000000        1.000000000000
  6 C     2 shells
 l=0 nsto= 1
    2       1.625000000000        1.000000000000
 l=1 nsto= 1
    2       1.625000000000        1.000000000000
  7 C     2 shells
 l=0 nsto= 1
    2       1.625000000000        1.000000000000
 l=1 nsto= 1
    2       1.625000000000        1.000000000000
  8 C     2 shells
 l=0 nsto= 1
    2       1.625000000000        1.000000000000
 l=1 nsto= 1
    2       1.625000000000        1.000000000000
  9 H     1 shells
 l=0 nsto= 1
    1       1.200000000000        1.000000000000
 10 H     1 shells
 l=0 nsto= 1
    1       1.200000000000        1.000000000000
 11 H     1 shells
 l=0 nsto= 1
    1       1.200000000000        1.000000000000
 12 H     1 shells
 l=0 nsto= 1
    1       1.200000000000        1.000000000000
 13 H     1 shells
 l=0 nsto= 1
    1       1.200000000000        1.000000000000
 14 H     1 shells
 l=0 nsto= 1
    1       1.200000000000        1.000000000000
 15 C     2 shells
 l=0 nsto= 1
    2       1.625000000000        1.000000000000
 l=1 nsto= 1
    2       1.625000000000        1.000000000000
 16 C     2 shells
 l=0 nsto= 1
    2       1.625000000000        1.000000000000
 l=1 nsto= 1
    2       1.625000000000        1.000000000000
 17 C     2 shells
 l=0 nsto= 1
    2       1.625000000000        1.000000000000
 l=1 nsto= 1
    2       1.625000000000        1.000000000000
 18 H     1 shells
 l=0 nsto= 1
    1       1.200000000000        1.000000000000
 19 H     1 shells
 l=0 nsto= 1
    1       1.200000000000        1.000000000000
 20 H     1 shells
 l=0 nsto= 1
    1       1.200000000000        1.000000000000
 21 H     1 shells
 l=0 nsto= 1
    1       1.200000000000        1.000000000000
 22 H     1 shells
 l=0 nsto= 1
    1       1.200000000000        1.000000000000
 23 H     1 shells
 l=0 nsto= 1
    1       1.200000000000        1.000000000000
 24 H     1 shells
 l=0 nsto= 1
    1       1.200000000000        1.000000000000
 25 H     1 shells
 l=0 nsto= 1
    1       1.200000000000        1.000000000000
 26 H     1 shells
 l=0 nsto= 1
    1       1.200000000000        1.000000000000
------------------------------------------------------------------------------
                           ORCA NDO INTEGRAL CALCULATION
------------------------------------------------------------------------------

--------------
NDO PARAMETERS
--------------

Gamma integral treatment              ... Mataga-Nishimoto
Nuclear repulsuion treatment          ... Direct (ZA*ZB/RAB)
Interaction factors:
s-s (sigma) =    1.0000
s-p (sigma) =    1.0000
s-d (sigma) =    1.0000
p-p (sigma) =    1.2670  p-p(pi) =    0.5850
p-d (sigma) =    1.0000  p-d(pi) =    1.0000
d-d (sigma) =    1.0000  d-d(pi) =    1.0000 d-d (delta) =    1.0000

fGamma parameter for Mataga-Nishimoto gamma integrals:    1.2000

--------------------------
Parameters for Element H :
--------------------------
 One-electron parameters (in eV)
  U(s)  =   -13.060000 Beta(s) =    12.000000 Neff(s) =     1.000000
 One-center electron repulsion parameters (in eV)
  G(s,s)=    12.850000
--------------------------
Parameters for Element C :
--------------------------
 One-electron parameters (in eV)
  U(s)  =   -50.870766 Beta(s) =    17.000000 Neff(s) =     2.000000
  U(p)  =   -41.599980 Beta(p) =    17.000000 Neff(p) =     2.000000 
 One-center electron repulsion parameters (in eV)
  G(s,s)=    11.110000
  G(s,p)=    11.110000 G(p,p)  =    11.110000
 Slater-Condon parameters (in eV)
 F2(p,p)=     4.5098 G1(s,p)=    6.8977
--------------------------
Parameters for Element S :
--------------------------
 One-electron parameters (in eV)
  U(s)  =   -69.509597 Beta(s) =    15.000000 Neff(s) =     2.000000
  U(p)  =   -60.725746 Beta(p) =    15.000000 Neff(p) =     4.000000 
 One-center electron repulsion parameters (in eV)
  G(s,s)=    10.090000
  G(s,p)=    10.090000 G(p,p)  =    10.090000
 Slater-Condon parameters (in eV)
 F2(p,p)=     4.5377 G1(s,p)=    3.0756

 Number of atoms                    ....   27
 Number of basis functions          ....   60

 Overlap integrals                  .... done
 One electron matrix                .... done
 Nuclear repulsion                  .... done
 Integral list                      .... done
 Electron-electron repulsion        .... done
-------------------------------------------------------------------------------
                                 ORCA SCF
-------------------------------------------------------------------------------

------------
SCF SETTINGS
------------
Hamiltonian:
 ZDO-Hamiltonian        Method          .... INDO


General Settings:
 Integral files         IntName         .... /home/mattyjones/Software/morphct/tests/output_EZ/donor_polymer/chromophores/input_orca/single/00026
 Hartree-Fock type      HFTyp           .... RHF
 Total Charge           Charge          ....    0
 Multiplicity           Mult            ....    1
 Number of Electrons    NEL             ....   62
 Basis Dimension        Dim             ....   60
 Nuclear Repulsion      ENuc            ....    295.9708370818 Eh

Convergence Acceleration:
 DIIS                   CNVDIIS         .... on
   Start iteration      DIISMaxIt       ....    12
   Startup error        DIISStart       ....  0.200000
   # of expansion vecs  DIISMaxEq       ....     5
   Bias factor          DIISBfac        ....   1.050
   Max. coefficient     DIISMaxC        ....  10.000
 Newton-Raphson         CNVNR           .... off
 SOSCF                  CNVSOSCF        .... on
   Start iteration      SOSCFMaxIt      ....   150
   Startup grad/error   SOSCFStart      ....  0.003300
 Level Shifting         CNVShift        .... on
   Level shift para.    LevelShift      ....    0.2500
   Turn off err/grad.   ShiftErr        ....    0.0010
 Zerner damping         CNVZerner       .... off
 Static damping         CNVDamp         .... on
   Fraction old density DampFac         ....    0.7000
   Max. Damping (<1)    DampMax         ....    0.9800
   Min. Damping (>=0)   DampMin         ....    0.0000
   Turn off err/grad.   DampErr         ....    0.1000
 Fernandez-Rico         CNVRico         .... off

SCF Procedure:
 Maximum # iterations   MaxIter         ....   125
 SCF integral mode      SCFMode         .... Conventional
 Integral Buffer length BufferLength    .... 1048576
 Integral index format  IndFormat       ....     0
 Integral value format  ValFormat       ....     0
 Integral Storage       Thresh          ....  1.000e-08 Eh

Convergence Tolerance:
 Convergence Check Mode ConvCheckMode   .... Total+1el-Energy
 Convergence forced     ConvForced      .... 0
 Energy Change          TolE            ....  1.000e-06 Eh
 1-El. energy change                    ....  1.000e-03 Eh
 Orbital Gradient       TolG            ....  5.000e-05
 Orbital Rotation angle TolX            ....  5.000e-05
 DIIS Error             TolErr          ....  1.000e-06


Diagonalization of the overlap matrix:
Smallest eigenvalue                        ... 1.698e-01
Time for diagonalization                   ...    0.001 sec
Threshold for overlap eigenvalues          ... 1.000e-08
Number of eigenvalues below threshold      ... 0
Time for construction of square roots      ...    0.000 sec
Total time needed                          ...    0.001 sec

-------------------------------
INITIAL GUESS: EXTENDED HUECKEL
-------------------------------
EHT matrix was read from disk
EHT matrix was diagonalized
Initial density was built
                      ------------------
                      INITIAL GUESS DONE
                      ------------------

 InCore treatment chosen:
   Memory dedicated               ...    1024 MB
   Memory needed                  ...      0 MB
   Number of tiny    integrals    ...       0
   Number of small   integrals    ...       0
   Number of regular integrals    ...    1896

--------------
SCF ITERATIONS
--------------
ITER       Energy         Delta-E        Max-DP      RMS-DP      [F,P]     Damp
  0     -6.3423187290   0.000000000000 0.03950381  0.00202624  0.1006423 0.7000
  1     -6.3630224375  -0.020703708545 0.03622543  0.00190600  0.0718757 0.7000
                               ***Turning on DIIS***
  2     -6.3783336215  -0.015311183988 0.08854870  0.00488426  0.0469832 0.0000
  3     -6.4187571228  -0.040423501267 0.01542433  0.00100299  0.0202725 0.0000
  4     -6.4108680246   0.007889098175 0.00961573  0.00068560  0.0058231 0.0000
  5     -6.4193336912  -0.008465666612 0.00635196  0.00046351  0.0032858 0.0000
  6     -6.4205811151  -0.001247423933 0.00413282  0.00033081  0.0016352 0.0000
                      *** Initiating the SOSCF procedure ***
                           *** Shutting down DIIS ***
                      *** Re-Reading the Fockian *** 
                      *** Removing any level shift *** 
ITER      Energy       Delta-E        Grad      Rot      Max-DP    RMS-DP
  7     -6.41850313   0.0020779899  0.002991  0.002991  0.004053  0.000311
  8     -6.41757706   0.0009260642  0.000226  0.000606  0.000436  0.000032
                 **** Energy Check signals convergence ****
              ***Rediagonalizing the Fockian in SOSCF/NRSCF***

               *****************************************************
               *                     SUCCESS                       *
               *           SCF CONVERGED AFTER   9 CYCLES          *
               *****************************************************


----------------
TOTAL SCF ENERGY
----------------

Total Energy       :           -6.41757785 Eh            -174.63117 eV

Components:
Nuclear Repulsion  :          295.97083708 Eh            8053.77592 eV
Electronic Energy  :         -302.38841494 Eh           -8228.40709 eV
One Electron Energy:         -559.53461543 Eh          -15225.71095 eV
Two Electron Energy:          257.14620049 Eh            6997.30385 eV


---------------
SCF CONVERGENCE
---------------

  Last Energy change         ...   -7.9251e-07  Tolerance :   1.0000e-06
  Last MAX-Density change    ...    4.0717e-04  Tolerance :   1.0000e-05
  Last RMS-Density change    ...    2.5796e-05  Tolerance :   1.0000e-06
  Last Orbital Gradient      ...    1.3347e-04  Tolerance :   5.0000e-05
  Last Orbital Rotation      ...    5.3825e-04  Tolerance :   5.0000e-05

             **** THE GBW FILE WAS UPDATED (/home/mattyjones/Software/morphct/tests/output_EZ/donor_polymer/chromophores/input_orca/single/00026.gbw) ****
             **** DENSITY FILE WAS UPDATED (/home/mattyjones/Software/morphct/tests/output_EZ/donor_polymer/chromophores/input_orca/single/00026.scfp.tmp) ****
             **** ENERGY FILE WAS UPDATED (/home/mattyjones/Software/morphct/tests/output_EZ/donor_polymer/chromophores/input_orca/single/00026.en.tmp) ****
----------------
ORBITAL ENERGIES
----------------

  NO   OCC          E(Eh)            E(eV) 
   0   2.0000      -1.556621       -42.3578 
   1   2.0000      -1.411415       -38.4066 
   2   2.0000      -1.287127       -35.0245 
   3   2.0000      -1.179244       -32.0889 
   4   2.0000      -1.113545       -30.3011 
   5   2.0000      -1.036213       -28.1968 
   6   2.0000      -0.951947       -25.9038 
   7   2.0000      -0.897690       -24.4274 
   8   2.0000      -0.869151       -23.6508 
   9   2.0000      -0.833860       -22.6905 
  10   2.0000      -0.776463       -21.1286 
  11   2.0000      -0.732975       -19.9453 
  12   2.0000      -0.700261       -19.0551 
  13   2.0000      -0.664728       -18.0882 
  14   2.0000      -0.656844       -17.8736 
  15   2.0000      -0.613156       -16.6848 
  16   2.0000      -0.585399       -15.9295 
  17   2.0000      -0.576256       -15.6807 
  18   2.0000      -0.563338       -15.3292 
  19   2.0000      -0.551361       -15.0033 
  20   2.0000      -0.541191       -14.7265 
  21   2.0000      -0.513580       -13.9752 
  22   2.0000      -0.506925       -13.7941 
  23   2.0000      -0.494946       -13.4682 
  24   2.0000      -0.489235       -13.3128 
  25   2.0000      -0.480197       -13.0668 
  26   2.0000      -0.474880       -12.9221 
  27   2.0000      -0.463604       -12.6153 
  28   2.0000      -0.437519       -11.9055 
  29   2.0000      -0.356738        -9.7073 
  30   2.0000      -0.304558        -8.2874 
  31   0.0000       0.008011         0.2180 
  32   0.0000       0.069181         1.8825 
  33   0.0000       0.078323         2.1313 
  34   0.0000       0.090812         2.4711 
  35   0.0000       0.105111         2.8602 
  36   0.0000       0.108782         2.9601 
  37   0.0000       0.124324         3.3830 
  38   0.0000       0.140441         3.8216 
  39   0.0000       0.156518         4.2591 
  40   0.0000       0.164100         4.4654 
  41   0.0000       0.169694         4.6176 
  42   0.0000       0.205542         5.5931 
  43   0.0000       0.232156         6.3173 
  44   0.0000       0.233226         6.3464 
  45   0.0000       0.236607         6.4384 
  46   0.0000       0.239783         6.5248 
  47   0.0000       0.241707         6.5772 
  48   0.0000       0.244402         6.6505 
  49   0.0000       0.246536         6.7086 
  50   0.0000       0.259194         7.0530 
  51   0.0000       0.262599         7.1457 
  52   0.0000       0.267185         7.2705 
  53   0.0000       0.284331         7.7370 
  54   0.0000       0.305798         8.3212 
  55   0.0000       0.310493         8.4489 
  56   0.0000       0.336307         9.1514 
  57   0.0000       0.353112         9.6087 
  58   0.0000       0.409269        11.1368 
  59   0.0000       0.431366        11.7381 
-------
TIMINGS
-------

Total SCF time: 0 days 0 hours 0 min 0 sec 

Total time                  ....       0.204 sec
Sum of individual times     ....       0.070 sec  ( 34.3%)

Fock matrix formation       ....       0.032 sec  ( 15.8%)
Diagonalization             ....       0.006 sec  (  2.8%)
Density matrix formation    ....       0.000 sec  (  0.2%)
Population analysis         ....       0.000 sec  (  0.0%)
Initial guess               ....       0.001 sec  (  0.4%)
Orbital Transformation      ....       0.000 sec  (  0.0%)
Orbital Orthonormalization  ....       0.000 sec  (  0.0%)
DIIS solution               ....       0.001 sec  (  0.7%)
SOSCF solution              ....       0.029 sec  ( 14.4%)

-------------------------   --------------------
FINAL SINGLE POINT ENERGY        -6.417577853574
-------------------------   --------------------


                            ***************************************
                            *     ORCA property calculations      *
                            ***************************************

                                    ---------------------
                                    Active property flags
                                    ---------------------
   (+) Dipole Moment


------------------------------------------------------------------------------
                       ORCA ELECTRIC PROPERTIES CALCULATION
------------------------------------------------------------------------------

Dipole Moment Calculation                       ... on
Quadrupole Moment Calculation                   ... off
Polarizability Calculation                      ... off
GBWName                                         ... /home/mattyjones/Software/morphct/tests/output_EZ/donor_polymer/chromophores/input_orca/single/00026.gbw
Electron density file                           ... /home/mattyjones/Software/morphct/tests/output_EZ/donor_polymer/chromophores/input_orca/single/00026.scfp.tmp
The origin for moment calculation is the CENTER OF MASS  = (-1.698458, -1.378751 -1.095507)

-------------
DIPOLE MOMENT
-------------
                                X             Y             Z
Electronic contribution:    -93.02346     -74.96046     -64.42994
Nuclear contribution   :     49.99228      40.42893      34.31479
                        -----------------------------------------
Total Dipole Moment    :    -43.03119     -34.53153     -30.11515
                        -----------------------------------------
Magnitude (a.u.)       :     62.85724
Magnitude (Debye)      :    159.77040


Timings for individual modules:

Sum of individual times         ...        0.485 sec (=   0.008 min)
STO integral calculation        ...        0.270 sec (=   0.004 min)  55.6 %
SCF iterations                  ...        0.215 sec (=   0.004 min)  44.4 %
                             ****ORCA TERMINATED NORMALLY****
TOTAL RUN TIME: 0 days 0 hours 0 minutes 0 seconds 729 msec

