
                                 *****************
                                 * O   R   C   A *
                                 *****************

           --- An Ab Initio, DFT and Semiempirical electronic structure package ---

                  #######################################################
                  #                        -***-                        #
                  #  Department of molecular theory and spectroscopy    #
                  #              Directorship: Frank Neese              #
                  # Max Planck Institute for Chemical Energy Conversion #
                  #                  D-45470 Muelheim/Ruhr              #
                  #                       Germany                       #
                  #                                                     #
                  #                  All rights reserved                #
                  #                        -***-                        #
                  #######################################################


                         Program Version 4.0.1.2 - RELEASE -


 With contributions from (in alphabetic order):
   Daniel Aravena         : Magnetic Properties
   Michael Atanasov       : Ab Initio Ligand Field Theory
   Ute Becker             : Parallelization
   Martin Brehm           : Molecular dynamics
   Dmytro Bykov           : SCF Hessian
   Vijay G. Chilkuri      : MRCI spin determinant printing
   Dipayan Datta          : RHF DLPNO-CCSD density
   Achintya Kumar Dutta   : EOM-CC, STEOM-CC
   Dmitry Ganyushin       : Spin-Orbit,Spin-Spin,Magnetic field MRCI
   Yang Guo               : DLPNO-NEVPT2, CIM, IAO-localization
   Andreas Hansen         : Spin unrestricted coupled pair/coupled cluster methods
   Lee Huntington         : MR-EOM, pCC
   Robert Izsak           : Overlap fitted RIJCOSX, COSX-SCS-MP3, EOM
   Christian Kollmar      : KDIIS, OOCD, Brueckner-CCSD(T), CCSD density
   Simone Kossmann        : Meta GGA functionals, TD-DFT gradient, OOMP2, MP2 Hessian
   Martin Krupicka        : AUTO-CI
   Dagmar Lenk            : GEPOL surface
   Dimitrios Liakos       : Extrapolation schemes; parallel MDCI
   Dimitrios Manganas     : ROCIS; embedding schemes
   Dimitrios Pantazis     : SARC Basis sets
   Taras Petrenko         : DFT Hessian,TD-DFT gradient, ASA, ECA, R-Raman, ABS, FL, XAS/XES, NRVS
   Peter Pinski           : DLPNO-MP2
   Christoph Reimann      : Effective Core Potentials
   Marius Retegan         : Local ZFS, SOC
   Christoph Riplinger    : Optimizer, TS searches, QM/MM, DLPNO-CCSD(T), (RO)-DLPNO pert. Triples
   Tobias Risthaus        : Range-separated hybrids, TD-DFT gradient, RPA, STAB
   Michael Roemelt        : Restricted open shell CIS
   Masaaki Saitow         : Open-shell DLPNO
   Barbara Sandhoefer     : DKH picture change effects
   Kantharuban Sivalingam : CASSCF convergence, NEVPT2, FIC-MRCI
   Georgi Stoychev        : AutoAux
   Boris Wezisla          : Elementary symmetry handling
   Frank Wennmohs         : Technical directorship


 We gratefully acknowledge several colleagues who have allowed us to
 interface, adapt or use parts of their codes:
   Stefan Grimme, W. Hujo, H. Kruse,             : VdW corrections, initial TS optimization,
                  C. Bannwarth                     DFT functionals, gCP, sTDA/sTD-DF
   Ed Valeev                                     : LibInt (2-el integral package), F12 methods
   Garnet Chan, S. Sharma, J. Yang, R. Olivares  : DMRG
   Ulf Ekstrom                                   : XCFun DFT Library
   Mihaly Kallay                                 : mrcc  (arbitrary order and MRCC methods)
   Andreas Klamt, Michael Diedenhofen            : otool_cosmo (COSMO solvation model)
   Jiri Pittner, Ondrej Demel                    : Mk-CCSD
   Frank Weinhold                                : gennbo (NPA and NBO analysis)
   Christopher J. Cramer and Donald G. Truhlar   : smd solvation model


 Your calculation uses the libint2 library for the computation of 2-el integrals
 For citations please refer to: http://libint.valeyev.net

 This ORCA versions uses:
   CBLAS   interface :  Fast vector & matrix operations
   LAPACKE interface :  Fast linear algebra routines
   SCALAPACK package :  Parallel linear algebra routines


leaving
Your calculation utilizes the basis: def2-SVP
   F. Weigend and R. Ahlrichs, Phys. Chem. Chem. Phys. 7, 3297 (2005).

================================================================================
                                        WARNINGS
                       Please study these warnings very carefully!
================================================================================

Warning: TCutStore was < 0. Adjusted to Thresh (uncritical)

WARNING: Direct SCF is incompatible with Method<>HF and Method<>DFT
  ===> : conventional SCF is chosen

WARNING: The NDO methods need Guess=HUECKEL or Guess=HCORE or Guess=MOREAD
  ===> : Guess is set to Hueckel

WARNING: The NDO methods need %rel::SOCType==1
  ===> : %rel::SOCType is set to 1

WARNING: The NDO methods cannot have frozencore=1
  ===> : %method FrozenCore=0 end

INFO   : the flag for use of LIBINT has been found!

================================================================================
                                       INPUT FILE
================================================================================
NAME = /home/mattyjones/Software/morphct/tests/output_EZ/donor_polymer/chromophores/input_orca/single/00029.inp
|  1> # ================================================================
|  2> # Orca input file made by Matty Jones
|  3> # ================================================================
|  4> ! ZINDO/S 
|  5> ! NOPOP
|  6> ! NOMOPRINT
|  7> * xyz 0   1
|  8>  C  4.35770  0.48624  -1.33412
|  9>  C  3.01433  0.67848  -1.00809
| 10>  C  2.78720  0.99850  0.36678
| 11>  C  3.95713  1.05927  1.13024
| 12>  S  5.19361  0.71864  0.07881
| 13>  H  2.16455  0.58997  -1.76543
| 14>  C  1.42581  1.30868  1.21871
| 15>  C  -0.08464  0.54574  1.61635
| 16>  C  -1.67534  0.44360  1.01529
| 17>  H  -2.35266  0.74331  1.91494
| 18>  H  -1.75330  1.29248  0.22776
| 19>  H  0.23491  -0.56912  1.67727
| 20>  H  -0.25754  0.93051  2.69957
| 21>  H  1.00119  2.30159  0.72817
| 22>  H  1.78564  1.61519  2.29338
| 23>  C  -2.32831  -0.89887  0.37113
| 24>  C  -2.32324  -0.97475  -1.30659
| 25>  C  -3.53349  -1.99733  -1.87725
| 26>  H  -3.51190  -2.99470  -1.29293
| 27>  H  -3.36865  -2.19486  -3.00463
| 28>  H  -4.55945  -1.48063  -1.72276
| 29>  H  -2.49008  0.07925  -1.73659
| 30>  H  -1.30355  -1.38321  -1.65334
| 31>  H  -1.74788  -1.82496  0.75930
| 32>  H  -3.42800  -0.99338  0.72413
| 33>  H  4.75896  0.24296  -2.28459
| 34>  H  4.03698  1.27739  2.16448
| 35> *
| 36> 
| 37>                          ****END OF INPUT****
================================================================================

                       ****************************
                       * Single Point Calculation *
                       ****************************

---------------------------------
CARTESIAN COORDINATES (ANGSTROEM)
---------------------------------
  C      4.357700    0.486240   -1.334120
  C      3.014330    0.678480   -1.008090
  C      2.787200    0.998500    0.366780
  C      3.957130    1.059270    1.130240
  S      5.193610    0.718640    0.078810
  H      2.164550    0.589970   -1.765430
  C      1.425810    1.308680    1.218710
  C     -0.084640    0.545740    1.616350
  C     -1.675340    0.443600    1.015290
  H     -2.352660    0.743310    1.914940
  H     -1.753300    1.292480    0.227760
  H      0.234910   -0.569120    1.677270
  H     -0.257540    0.930510    2.699570
  H      1.001190    2.301590    0.728170
  H      1.785640    1.615190    2.293380
  C     -2.328310   -0.898870    0.371130
  C     -2.323240   -0.974750   -1.306590
  C     -3.533490   -1.997330   -1.877250
  H     -3.511900   -2.994700   -1.292930
  H     -3.368650   -2.194860   -3.004630
  H     -4.559450   -1.480630   -1.722760
  H     -2.490080    0.079250   -1.736590
  H     -1.303550   -1.383210   -1.653340
  H     -1.747880   -1.824960    0.759300
  H     -3.428000   -0.993380    0.724130
  H      4.758960    0.242960   -2.284590
  H      4.036980    1.277390    2.164480

----------------------------
CARTESIAN COORDINATES (A.U.)
----------------------------
  NO LB      ZA    FRAG     MASS         X           Y           Z
   0 C     4.0000    0    12.011    8.234860    0.918860   -2.521121
   1 C     4.0000    0    12.011    5.696258    1.282141   -1.905014
   2 C     4.0000    0    12.011    5.267045    1.886892    0.693114
   3 C     4.0000    0    12.011    7.477892    2.001730    2.135844
   4 S     6.0000    0    32.060    9.814501    1.358033    0.148929
   5 H     1.0000    0     1.008    4.090407    1.114882   -3.336179
   6 C     4.0000    0    12.011    2.694390    2.473047    2.303028
   7 C     4.0000    0    12.011   -0.159946    1.031299    3.054459
   8 C     4.0000    0    12.011   -3.165934    0.838283    1.918620
   9 H     1.0000    0     1.008   -4.445883    1.404652    3.618712
  10 H     1.0000    0     1.008   -3.313257    2.442433    0.430404
  11 H     1.0000    0     1.008    0.443916   -1.075481    3.169581
  12 H     1.0000    0     1.008   -0.486680    1.758409    5.101448
  13 H     1.0000    0     1.008    1.891975    4.349375    1.376042
  14 H     1.0000    0     1.008    3.374371    3.052267    4.333860
  15 C     4.0000    0    12.011   -4.399868   -1.698618    0.701334
  16 C     4.0000    0    12.011   -4.390287   -1.842011   -2.469097
  17 C     4.0000    0    12.011   -6.677328   -3.774407   -3.547488
  18 H     1.0000    0     1.008   -6.636529   -5.659163   -2.443284
  19 H     1.0000    0     1.008   -6.365826   -4.147684   -5.677928
  20 H     1.0000    0     1.008   -8.616112   -2.797985   -3.255545
  21 H     1.0000    0     1.008   -4.705569    0.149761   -3.281680
  22 H     1.0000    0     1.008   -2.463353   -2.613888   -3.124360
  23 H     1.0000    0     1.008   -3.303015   -3.448675    1.434869
  24 H     1.0000    0     1.008   -6.477981   -1.877216    1.368407
  25 H     1.0000    0     1.008    8.993131    0.459128   -4.317249
  26 H     1.0000    0     1.008    7.628787    2.413917    4.090274

--------------------------------
INTERNAL COORDINATES (ANGSTROEM)
--------------------------------
 C      0   0   0     0.000000000000     0.00000000     0.00000000
 C      1   0   0     1.395669995164     0.00000000     0.00000000
 C      2   1   0     1.429779127768   114.10206893     0.00000000
 C      3   2   1     1.398320553164   113.69279169     0.00000000
 S      1   2   3     1.658048995959   105.47915867     0.00000000
 H      2   1   3     1.141719730976   123.42011635   180.01129138
 C      3   2   1     1.635658610285   132.49380028   179.91942205
 C      7   3   2     1.738290601626   139.38842353    58.18287131
 C      8   7   3     1.703535204567   139.19853569   269.00369948
 H      9   8   7     1.165314802532   104.76888233   233.50431077
 H      9   8   7     1.160550954030   104.96891021   346.34173685
 H      8   7   3     1.161351053084   101.20050890    33.70503239
 H      8   7   3     1.162457711618   101.36899113   144.92457126
 H      7   3   2     1.186086802936   103.96384368   296.24793084
 H      7   3   2     1.174027945962   105.73445080   185.21905294
 C      9   8   7     1.625895946056   124.35360368   111.02769616
 C     16   9   8     1.679442728318   115.58658072   261.60948648
 C     17  16   9     1.684050995220   111.33247883   204.06322935
 H     18  17  16     1.156132737794   109.82487067   312.25444155
 H     18  17  16     1.156363260788   109.36884428   191.39726069
 H     18  17  16     1.159068579377   108.67909700    72.01443946
 H     17  16   9     1.150500580443   109.36210632   324.56309502
 H     17  16   9     1.151886639475   108.62742639    84.53410390
 H     16   9   8     1.159835170143   109.00816208    22.46921140
 H     16   9   8     1.158818034119   109.13334194   140.12393287
 H      1   2   3     1.059994323994   127.26056973   179.99952715
 H      4   3   2     1.060002233252   127.20603123   179.99958337

---------------------------
INTERNAL COORDINATES (A.U.)
---------------------------
 C      0   0   0     0.000000000000     0.00000000     0.00000000
 C      1   0   0     2.637434064190     0.00000000     0.00000000
 C      2   1   0     2.701890983478   114.10206893     0.00000000
 C      3   2   1     2.642442892913   113.69279169     0.00000000
 S      1   2   3     3.133258518985   105.47915867     0.00000000
 H      2   1   3     2.157537613239   123.42011635   180.01129138
 C      3   2   1     3.090946822029   132.49380028   179.91942205
 C      7   3   2     3.284893178242   139.38842353    58.18287131
 C      8   7   3     3.219214996126   139.19853569   269.00369948
 H      9   8   7     2.202125836590   104.76888233   233.50431077
 H      9   8   7     2.193123467578   104.96891021   346.34173685
 H      8   7   3     2.194635435670   101.20050890    33.70503239
 H      8   7   3     2.196726717223   101.36899113   144.92457126
 H      7   3   2     2.241379228608   103.96384368   296.24793084
 H      7   3   2     2.218591291438   105.73445080   185.21905294
 C      9   8   7     3.072498060298   124.35360368   111.02769616
 C     16   9   8     3.173686814126   115.58658072   261.60948648
 C     17  16   9     3.182395176523   111.33247883   204.06322935
 H     18  17  16     2.184774248892   109.82487067   312.25444155
 H     18  17  16     2.185209874217   109.36884428   191.39726069
 H     18  17  16     2.190322185456   108.67909700    72.01443946
 H     17  16   9     2.174131013955   109.36210632   324.56309502
 H     17  16   9     2.176750285930   108.62742639    84.53410390
 H     16   9   8     2.191770832060   109.00816208    22.46921140
 H     16   9   8     2.189848723534   109.13334194   140.12393287
 H      1   2   3     2.003098975860   127.26056973   179.99952715
 H      4   3   2     2.003113922192   127.20603123   179.99958337

----------------------------
SLATER BASIS SET DIM=  60
----------------------------
  0 C     2 shells
 l=0 nsto= 1
    2       1.625000000000        1.000000000000
 l=1 nsto= 1
    2       1.625000000000        1.000000000000
  1 C     2 shells
 l=0 nsto= 1
    2       1.625000000000        1.000000000000
 l=1 nsto= 1
    2       1.625000000000        1.000000000000
  2 C     2 shells
 l=0 nsto= 1
    2       1.625000000000        1.000000000000
 l=1 nsto= 1
    2       1.625000000000        1.000000000000
  3 C     2 shells
 l=0 nsto= 1
    2       1.625000000000        1.000000000000
 l=1 nsto= 1
    2       1.625000000000        1.000000000000
  4 S     2 shells
 l=0 nsto= 1
    3       1.925000000000        1.000000000000
 l=1 nsto= 1
    3       1.925000000000        1.000000000000
  5 H     1 shells
 l=0 nsto= 1
    1       1.200000000000        1.000000000000
  6 C     2 shells
 l=0 nsto= 1
    2       1.625000000000        1.000000000000
 l=1 nsto= 1
    2       1.625000000000        1.000000000000
  7 C     2 shells
 l=0 nsto= 1
    2       1.625000000000        1.000000000000
 l=1 nsto= 1
    2       1.625000000000        1.000000000000
  8 C     2 shells
 l=0 nsto= 1
    2       1.625000000000        1.000000000000
 l=1 nsto= 1
    2       1.625000000000        1.000000000000
  9 H     1 shells
 l=0 nsto= 1
    1       1.200000000000        1.000000000000
 10 H     1 shells
 l=0 nsto= 1
    1       1.200000000000        1.000000000000
 11 H     1 shells
 l=0 nsto= 1
    1       1.200000000000        1.000000000000
 12 H     1 shells
 l=0 nsto= 1
    1       1.200000000000        1.000000000000
 13 H     1 shells
 l=0 nsto= 1
    1       1.200000000000        1.000000000000
 14 H     1 shells
 l=0 nsto= 1
    1       1.200000000000        1.000000000000
 15 C     2 shells
 l=0 nsto= 1
    2       1.625000000000        1.000000000000
 l=1 nsto= 1
    2       1.625000000000        1.000000000000
 16 C     2 shells
 l=0 nsto= 1
    2       1.625000000000        1.000000000000
 l=1 nsto= 1
    2       1.625000000000        1.000000000000
 17 C     2 shells
 l=0 nsto= 1
    2       1.625000000000        1.000000000000
 l=1 nsto= 1
    2       1.625000000000        1.000000000000
 18 H     1 shells
 l=0 nsto= 1
    1       1.200000000000        1.000000000000
 19 H     1 shells
 l=0 nsto= 1
    1       1.200000000000        1.000000000000
 20 H     1 shells
 l=0 nsto= 1
    1       1.200000000000        1.000000000000
 21 H     1 shells
 l=0 nsto= 1
    1       1.200000000000        1.000000000000
 22 H     1 shells
 l=0 nsto= 1
    1       1.200000000000        1.000000000000
 23 H     1 shells
 l=0 nsto= 1
    1       1.200000000000        1.000000000000
 24 H     1 shells
 l=0 nsto= 1
    1       1.200000000000        1.000000000000
 25 H     1 shells
 l=0 nsto= 1
    1       1.200000000000        1.000000000000
 26 H     1 shells
 l=0 nsto= 1
    1       1.200000000000        1.000000000000
------------------------------------------------------------------------------
                           ORCA NDO INTEGRAL CALCULATION
------------------------------------------------------------------------------

--------------
NDO PARAMETERS
--------------

Gamma integral treatment              ... Mataga-Nishimoto
Nuclear repulsuion treatment          ... Direct (ZA*ZB/RAB)
Interaction factors:
s-s (sigma) =    1.0000
s-p (sigma) =    1.0000
s-d (sigma) =    1.0000
p-p (sigma) =    1.2670  p-p(pi) =    0.5850
p-d (sigma) =    1.0000  p-d(pi) =    1.0000
d-d (sigma) =    1.0000  d-d(pi) =    1.0000 d-d (delta) =    1.0000

fGamma parameter for Mataga-Nishimoto gamma integrals:    1.2000

--------------------------
Parameters for Element H :
--------------------------
 One-electron parameters (in eV)
  U(s)  =   -13.060000 Beta(s) =    12.000000 Neff(s) =     1.000000
 One-center electron repulsion parameters (in eV)
  G(s,s)=    12.850000
--------------------------
Parameters for Element C :
--------------------------
 One-electron parameters (in eV)
  U(s)  =   -50.870766 Beta(s) =    17.000000 Neff(s) =     2.000000
  U(p)  =   -41.599980 Beta(p) =    17.000000 Neff(p) =     2.000000 
 One-center electron repulsion parameters (in eV)
  G(s,s)=    11.110000
  G(s,p)=    11.110000 G(p,p)  =    11.110000
 Slater-Condon parameters (in eV)
 F2(p,p)=     4.5098 G1(s,p)=    6.8977
--------------------------
Parameters for Element S :
--------------------------
 One-electron parameters (in eV)
  U(s)  =   -69.509597 Beta(s) =    15.000000 Neff(s) =     2.000000
  U(p)  =   -60.725746 Beta(p) =    15.000000 Neff(p) =     4.000000 
 One-center electron repulsion parameters (in eV)
  G(s,s)=    10.090000
  G(s,p)=    10.090000 G(p,p)  =    10.090000
 Slater-Condon parameters (in eV)
 F2(p,p)=     4.5377 G1(s,p)=    3.0756

 Number of atoms                    ....   27
 Number of basis functions          ....   60

 Overlap integrals                  .... done
 One electron matrix                .... done
 Nuclear repulsion                  .... done
 Integral list                      .... done
 Electron-electron repulsion        .... done
-------------------------------------------------------------------------------
                                 ORCA SCF
-------------------------------------------------------------------------------

------------
SCF SETTINGS
------------
Hamiltonian:
 ZDO-Hamiltonian        Method          .... INDO


General Settings:
 Integral files         IntName         .... /home/mattyjones/Software/morphct/tests/output_EZ/donor_polymer/chromophores/input_orca/single/00029
 Hartree-Fock type      HFTyp           .... RHF
 Total Charge           Charge          ....    0
 Multiplicity           Mult            ....    1
 Number of Electrons    NEL             ....   62
 Basis Dimension        Dim             ....   60
 Nuclear Repulsion      ENuc            ....    288.5231598655 Eh

Convergence Acceleration:
 DIIS                   CNVDIIS         .... on
   Start iteration      DIISMaxIt       ....    12
   Startup error        DIISStart       ....  0.200000
   # of expansion vecs  DIISMaxEq       ....     5
   Bias factor          DIISBfac        ....   1.050
   Max. coefficient     DIISMaxC        ....  10.000
 Newton-Raphson         CNVNR           .... off
 SOSCF                  CNVSOSCF        .... on
   Start iteration      SOSCFMaxIt      ....   150
   Startup grad/error   SOSCFStart      ....  0.003300
 Level Shifting         CNVShift        .... on
   Level shift para.    LevelShift      ....    0.2500
   Turn off err/grad.   ShiftErr        ....    0.0010
 Zerner damping         CNVZerner       .... off
 Static damping         CNVDamp         .... on
   Fraction old density DampFac         ....    0.7000
   Max. Damping (<1)    DampMax         ....    0.9800
   Min. Damping (>=0)   DampMin         ....    0.0000
   Turn off err/grad.   DampErr         ....    0.1000
 Fernandez-Rico         CNVRico         .... off

SCF Procedure:
 Maximum # iterations   MaxIter         ....   125
 SCF integral mode      SCFMode         .... Conventional
 Integral Buffer length BufferLength    .... 1048576
 Integral index format  IndFormat       ....     0
 Integral value format  ValFormat       ....     0
 Integral Storage       Thresh          ....  1.000e-08 Eh

Convergence Tolerance:
 Convergence Check Mode ConvCheckMode   .... Total+1el-Energy
 Convergence forced     ConvForced      .... 0
 Energy Change          TolE            ....  1.000e-06 Eh
 1-El. energy change                    ....  1.000e-03 Eh
 Orbital Gradient       TolG            ....  5.000e-05
 Orbital Rotation angle TolX            ....  5.000e-05
 DIIS Error             TolErr          ....  1.000e-06


Diagonalization of the overlap matrix:
Smallest eigenvalue                        ... 1.698e-01
Time for diagonalization                   ...    0.001 sec
Threshold for overlap eigenvalues          ... 1.000e-08
Number of eigenvalues below threshold      ... 0
Time for construction of square roots      ...    0.000 sec
Total time needed                          ...    0.001 sec

-------------------------------
INITIAL GUESS: EXTENDED HUECKEL
-------------------------------
EHT matrix was read from disk
EHT matrix was diagonalized
Initial density was built
                      ------------------
                      INITIAL GUESS DONE
                      ------------------

 InCore treatment chosen:
   Memory dedicated               ...    1024 MB
   Memory needed                  ...      0 MB
   Number of tiny    integrals    ...       0
   Number of small   integrals    ...       0
   Number of regular integrals    ...    1896

--------------
SCF ITERATIONS
--------------
ITER       Energy         Delta-E        Max-DP      RMS-DP      [F,P]     Damp
  0     -8.6701654012   0.000000000000 0.04485441  0.00202772  0.0835899 0.7000
  1     -8.6909875070  -0.020822105828 0.04424699  0.00191341  0.0641853 0.7000
                               ***Turning on DIIS***
  2     -8.7063966480  -0.015409140946 0.11811145  0.00492515  0.0467926 0.0000
  3     -8.7472765719  -0.040879923933 0.02362523  0.00104779  0.0169385 0.0000
  4     -8.7389433980   0.008333173936 0.01604990  0.00071393  0.0084307 0.0000
  5     -8.7474924882  -0.008549090252 0.01133599  0.00048310  0.0050473 0.0000
  6     -8.7488082803  -0.001315792132 0.00843732  0.00034178  0.0030996 0.0000
                      *** Initiating the SOSCF procedure ***
                           *** Shutting down DIIS ***
                      *** Re-Reading the Fockian *** 
                      *** Removing any level shift *** 
ITER      Energy       Delta-E        Grad      Rot      Max-DP    RMS-DP
  7     -8.74674709   0.0020611889  0.002949  0.002949  0.005076  0.000193
  8     -8.74593994   0.0008071496  0.000792  0.002181  0.002548  0.000089
  9     -8.74594730  -0.0000073582  0.000356  0.002165  0.002841  0.000095
 10     -8.74595000  -0.0000027025  0.000027  0.000050  0.000133  0.000005
                 **** Energy Check signals convergence ****
              ***Rediagonalizing the Fockian in SOSCF/NRSCF***

               *****************************************************
               *                     SUCCESS                       *
               *           SCF CONVERGED AFTER  11 CYCLES          *
               *****************************************************


----------------
TOTAL SCF ENERGY
----------------

Total Energy       :           -8.74595002 Eh            -237.98940 eV

Components:
Nuclear Repulsion  :          288.52315987 Eh            7851.11432 eV
Electronic Energy  :         -297.26910989 Eh           -8089.10372 eV
One Electron Energy:         -549.42800819 Eh          -14950.69618 eV
Two Electron Energy:          252.15889830 Eh            6861.59246 eV


---------------
SCF CONVERGENCE
---------------

  Last Energy change         ...   -2.1983e-08  Tolerance :   1.0000e-06
  Last MAX-Density change    ...    3.1451e-05  Tolerance :   1.0000e-05
  Last RMS-Density change    ...    1.3511e-06  Tolerance :   1.0000e-06
  Last Orbital Gradient      ...    5.6346e-06  Tolerance :   5.0000e-05
  Last Orbital Rotation      ...    1.1815e-05  Tolerance :   5.0000e-05

             **** THE GBW FILE WAS UPDATED (/home/mattyjones/Software/morphct/tests/output_EZ/donor_polymer/chromophores/input_orca/single/00029.gbw) ****
             **** DENSITY FILE WAS UPDATED (/home/mattyjones/Software/morphct/tests/output_EZ/donor_polymer/chromophores/input_orca/single/00029.scfp.tmp) ****
             **** ENERGY FILE WAS UPDATED (/home/mattyjones/Software/morphct/tests/output_EZ/donor_polymer/chromophores/input_orca/single/00029.en.tmp) ****
----------------
ORBITAL ENERGIES
----------------

  NO   OCC          E(Eh)            E(eV) 
   0   2.0000      -1.555802       -42.3355 
   1   2.0000      -1.392575       -37.8939 
   2   2.0000      -1.285140       -34.9704 
   3   2.0000      -1.197924       -32.5972 
   4   2.0000      -1.107417       -30.1344 
   5   2.0000      -1.040530       -28.3143 
   6   2.0000      -0.965688       -26.2777 
   7   2.0000      -0.903633       -24.5891 
   8   2.0000      -0.866993       -23.5921 
   9   2.0000      -0.831064       -22.6144 
  10   2.0000      -0.774818       -21.0839 
  11   2.0000      -0.722235       -19.6530 
  12   2.0000      -0.681162       -18.5354 
  13   2.0000      -0.671816       -18.2811 
  14   2.0000      -0.653776       -17.7901 
  15   2.0000      -0.609238       -16.5782 
  16   2.0000      -0.591795       -16.1036 
  17   2.0000      -0.572293       -15.5729 
  18   2.0000      -0.568244       -15.4627 
  19   2.0000      -0.547843       -14.9076 
  20   2.0000      -0.533590       -14.5197 
  21   2.0000      -0.514628       -14.0037 
  22   2.0000      -0.503729       -13.7072 
  23   2.0000      -0.502507       -13.6739 
  24   2.0000      -0.489478       -13.3194 
  25   2.0000      -0.470156       -12.7936 
  26   2.0000      -0.464318       -12.6347 
  27   2.0000      -0.440545       -11.9878 
  28   2.0000      -0.433290       -11.7904 
  29   2.0000      -0.357409        -9.7256 
  30   2.0000      -0.305461        -8.3120 
  31   0.0000       0.005805         0.1580 
  32   0.0000       0.042169         1.1475 
  33   0.0000       0.072780         1.9805 
  34   0.0000       0.084166         2.2903 
  35   0.0000       0.101153         2.7525 
  36   0.0000       0.107134         2.9153 
  37   0.0000       0.124647         3.3918 
  38   0.0000       0.141043         3.8380 
  39   0.0000       0.157945         4.2979 
  40   0.0000       0.165081         4.4921 
  41   0.0000       0.173581         4.7234 
  42   0.0000       0.201532         5.4840 
  43   0.0000       0.224076         6.0974 
  44   0.0000       0.228477         6.2172 
  45   0.0000       0.232337         6.3222 
  46   0.0000       0.236940         6.4475 
  47   0.0000       0.238119         6.4795 
  48   0.0000       0.240148         6.5348 
  49   0.0000       0.242005         6.5853 
  50   0.0000       0.243524         6.6266 
  51   0.0000       0.260676         7.0934 
  52   0.0000       0.265899         7.2355 
  53   0.0000       0.275404         7.4941 
  54   0.0000       0.300767         8.1843 
  55   0.0000       0.308869         8.4048 
  56   0.0000       0.342813         9.3284 
  57   0.0000       0.366252         9.9662 
  58   0.0000       0.403522        10.9804 
  59   0.0000       0.440011        11.9733 
-------
TIMINGS
-------

Total SCF time: 0 days 0 hours 0 min 0 sec 

Total time                  ....       0.060 sec
Sum of individual times     ....       0.053 sec  ( 88.5%)

Fock matrix formation       ....       0.042 sec  ( 69.7%)
Diagonalization             ....       0.006 sec  (  9.2%)
Density matrix formation    ....       0.000 sec  (  0.8%)
Population analysis         ....       0.000 sec  (  0.0%)
Initial guess               ....       0.001 sec  (  1.1%)
Orbital Transformation      ....       0.000 sec  (  0.0%)
Orbital Orthonormalization  ....       0.000 sec  (  0.0%)
DIIS solution               ....       0.002 sec  (  2.7%)
SOSCF solution              ....       0.003 sec  (  5.0%)

-------------------------   --------------------
FINAL SINGLE POINT ENERGY        -8.745950024527
-------------------------   --------------------


                            ***************************************
                            *     ORCA property calculations      *
                            ***************************************

                                    ---------------------
                                    Active property flags
                                    ---------------------
   (+) Dipole Moment


------------------------------------------------------------------------------
                       ORCA ELECTRIC PROPERTIES CALCULATION
------------------------------------------------------------------------------

Dipole Moment Calculation                       ... on
Quadrupole Moment Calculation                   ... off
Polarizability Calculation                      ... off
GBWName                                         ... /home/mattyjones/Software/morphct/tests/output_EZ/donor_polymer/chromophores/input_orca/single/00029.gbw
Electron density file                           ... /home/mattyjones/Software/morphct/tests/output_EZ/donor_polymer/chromophores/input_orca/single/00029.scfp.tmp
The origin for moment calculation is the CENTER OF MASS  = ( 2.502344,  0.454363  0.051255)

-------------
DIPOLE MOMENT
-------------
                                X             Y             Z
Electronic contribution:    138.17003      22.20159       3.04403
Nuclear contribution   :    -74.34161     -12.02870      -1.34214
                        -----------------------------------------
Total Dipole Moment    :     63.82843      10.17289       1.70190
                        -----------------------------------------
Magnitude (a.u.)       :     64.65642
Magnitude (Debye)      :    164.34355


Timings for individual modules:

Sum of individual times         ...        0.095 sec (=   0.002 min)
STO integral calculation        ...        0.025 sec (=   0.000 min)  26.6 %
SCF iterations                  ...        0.069 sec (=   0.001 min)  73.4 %
                             ****ORCA TERMINATED NORMALLY****
TOTAL RUN TIME: 0 days 0 hours 0 minutes 0 seconds 548 msec

