
                                 *****************
                                 * O   R   C   A *
                                 *****************

           --- An Ab Initio, DFT and Semiempirical electronic structure package ---

                  #######################################################
                  #                        -***-                        #
                  #  Department of molecular theory and spectroscopy    #
                  #              Directorship: Frank Neese              #
                  # Max Planck Institute for Chemical Energy Conversion #
                  #                  D-45470 Muelheim/Ruhr              #
                  #                       Germany                       #
                  #                                                     #
                  #                  All rights reserved                #
                  #                        -***-                        #
                  #######################################################


                         Program Version 3.0.3 - RELEASE   -


 With contributions from (in alphabetic order):
   Ute Becker             : Parallelization
   Dmytro Bykov           : SCF Hessian
   Dmitry Ganyushin       : Spin-Orbit,Spin-Spin,Magnetic field MRCI
   Andreas Hansen         : Spin unrestricted coupled pair/coupled cluster methods
   Dimitrios Liakos       : Extrapolation schemes; parallel MDCI
   Robert Izsak           : Overlap fitted RIJCOSX, COSX-SCS-MP3
   Christian Kollmar      : KDIIS, OOCD, Brueckner-CCSD(T), CCSD density
   Simone Kossmann        : Meta GGA functionals, TD-DFT gradient, OOMP2, MP2 Hessian
   Taras Petrenko         : DFT Hessian,TD-DFT gradient, ASA and ECA modules, normal mode analysis, Resonance Raman, ABS, FL, XAS/XES, NRVS
   Christoph Reimann      : Effective Core Potentials
   Michael Roemelt        : Restricted open shell CIS
   Christoph Riplinger    : Improved optimizer, TS searches, QM/MM, DLPNO-CCSD
   Barbara Sandhoefer     : DKH picture change effects
   Igor Schapiro          : Molecular dynamics
   Kantharuban Sivalingam : CASSCF convergence, NEVPT2
   Boris Wezisla          : Elementary symmetry handling
   Frank Wennmohs         : Technical directorship


 We gratefully acknowledge several colleagues who have allowed us to
 interface, adapt or use parts of their codes:
   Stefan Grimme, W. Hujo, H. Kruse, T. Risthaus : VdW corrections, initial TS optimization,
                                                   DFT functionals, gCP
   Ed Valeev                                     : LibInt (2-el integral package), F12 methods
   Garnet Chan, S. Sharma, R. Olivares           : DMRG
   Ulf Ekstrom                                   : XCFun DFT Library
   Mihaly Kallay                                 : mrcc  (arbitrary order and MRCC methods)
   Andreas Klamt, Michael Diedenhofen            : otool_cosmo (COSMO solvation model)
   Frank Weinhold                                : gennbo (NPA and NBO analysis)
   Christopher J. Cramer and Donald G. Truhlar   : smd solvation model


 Your calculation uses the libint2 library for the computation of 2-el integrals
 For citations please refer to: http://libint.valeyev.net

 This ORCA versions uses:
   CBLAS   interface :  Fast vector & matrix operations
   LAPACKE interface :  Fast linear algebra routines
   SCALAPACK package :  Parallel linear algebra routines


leaving
================================================================================
                                        WARNINGS
                       Please study these warnings very carefully!
================================================================================
Now building the actual basis set

WARNING: Direct SCF is incompatible with Method<>HF and Method<>DFT
  ===> : conventional SCF is chosen

WARNING: The NDO methods need Guess=HUECKEL or Guess=HCORE or Guess=MOREAD
  ===> : Guess is set to Hueckel

WARNING: The NDO methods need %rel::SOCType==1
  ===> : %rel::SOCType is set to 1

WARNING: The NDO methods cannot have frozencore=1
  ===> : %method FrozenCore=0 end


INFO   : the flag for use of LIBINT has been found!

================================================================================
                                       INPUT FILE
================================================================================
NAME = /Users/mattyjones/GoogleDrive/Boise/Code/MorphCT/tests/output_EZ/donor_polymer/chromophores/input_orca/pair/00005-00026.inp
|  1> # ================================================================
|  2> # Orca input file made by Matty Jones
|  3> # ================================================================
|  4> ! ZINDO/S 
|  5> ! NOPOP
|  6> ! NOMOPRINT
|  7> * xyz 0   1
|  8>  C  20.08878  -6.53636  -10.82215
|  9>  C  21.31135  -5.88280  -10.66062
| 10>  C  22.19075  -6.51217  -9.72531
| 11>  C  21.65991  -7.66854  -9.14537
| 12>  S  20.15165  -7.84887  -9.81098
| 13>  H  21.49790  -4.72504  -10.55554
| 14>  C  23.66681  -5.99397  -9.31656
| 15>  C  23.87222  -4.40288  -8.75624
| 16>  C  25.48484  -3.93961  -8.44572
| 17>  H  25.48214  -2.78636  -8.61530
| 18>  H  26.09930  -4.40579  -9.30521
| 19>  H  23.44439  -3.68745  -9.54715
| 20>  H  23.28598  -4.30126  -7.77133
| 21>  H  24.10220  -6.67573  -8.47447
| 22>  H  24.36855  -6.09518  -10.24584
| 23>  C  26.24704  -4.18234  -7.02237
| 24>  C  27.90077  -3.77165  -7.05359
| 25>  C  28.31419  -2.18106  -6.69028
| 26>  H  29.46854  -2.09055  -6.65303
| 27>  H  27.86879  -1.88795  -5.66450
| 28>  H  27.89950  -1.48221  -7.51381
| 29>  H  28.43944  -4.45872  -6.30058
| 30>  H  28.30607  -3.97026  -8.11318
| 31>  H  26.17236  -5.29648  -6.72749
| 32>  H  25.74909  -3.54360  -6.19909
| 33>  C  -26.47815  1.39883  5.74825
| 34>  C  -25.89672  2.06065  6.83076
| 35>  C  -26.73893  3.04664  7.43308
| 36>  C  -27.99171  3.16397  6.82310
| 37>  S  -27.99142  2.05718  5.58801
| 38>  H  -24.83914  1.84989  7.20744
| 39>  C  -26.32214  3.98064  8.68898
| 40>  C  -25.00755  5.02698  8.45492
| 41>  C  -24.59241  6.07254  9.72613
| 42>  H  -25.57134  6.55026  10.11609
| 43>  H  -24.12291  5.44818  10.57427
| 44>  H  -24.08334  4.38524  8.21343
| 45>  H  -25.27297  5.68575  7.54613
| 46>  H  -27.21392  4.60322  9.09156
| 47>  H  -25.99050  3.27798  9.56537
| 48>  C  -23.57566  7.25445  9.24133
| 49>  C  -21.91225  6.96896  9.29491
| 50>  C  -21.46274  5.51393  10.00106
| 51>  H  -20.31899  5.37355  9.88807
| 52>  H  -22.01224  4.64046  9.47997
| 53>  H  -21.73894  5.53619  11.12502
| 54>  H  -21.52005  6.97051  8.20924
| 55>  H  -21.41435  7.82835  9.88038
| 56>  H  -23.82913  7.53677  8.14600
| 57>  H  -23.76715  8.18847  9.90223
| 58>  H  19.28876  -6.25331  -11.45733
| 59>  H  22.12429  -8.29806  -8.43007
| 60>  H  -26.04387  0.63613  5.15387
| 61>  H  -28.77712  3.82246  7.09350
| 62> *
| 63> 
| 64>                          ****END OF INPUT****
================================================================================

                       ****************************
                       * Single Point Calculation *
                       ****************************

---------------------------------
CARTESIAN COORDINATES (ANGSTROEM)
---------------------------------
  C     20.088780   -6.536360  -10.822150
  C     21.311350   -5.882800  -10.660620
  C     22.190750   -6.512170   -9.725310
  C     21.659910   -7.668540   -9.145370
  S     20.151650   -7.848870   -9.810980
  H     21.497900   -4.725040  -10.555540
  C     23.666810   -5.993970   -9.316560
  C     23.872220   -4.402880   -8.756240
  C     25.484840   -3.939610   -8.445720
  H     25.482140   -2.786360   -8.615300
  H     26.099300   -4.405790   -9.305210
  H     23.444390   -3.687450   -9.547150
  H     23.285980   -4.301260   -7.771330
  H     24.102200   -6.675730   -8.474470
  H     24.368550   -6.095180  -10.245840
  C     26.247040   -4.182340   -7.022370
  C     27.900770   -3.771650   -7.053590
  C     28.314190   -2.181060   -6.690280
  H     29.468540   -2.090550   -6.653030
  H     27.868790   -1.887950   -5.664500
  H     27.899500   -1.482210   -7.513810
  H     28.439440   -4.458720   -6.300580
  H     28.306070   -3.970260   -8.113180
  H     26.172360   -5.296480   -6.727490
  H     25.749090   -3.543600   -6.199090
  C    -26.478150    1.398830    5.748250
  C    -25.896720    2.060650    6.830760
  C    -26.738930    3.046640    7.433080
  C    -27.991710    3.163970    6.823100
  S    -27.991420    2.057180    5.588010
  H    -24.839140    1.849890    7.207440
  C    -26.322140    3.980640    8.688980
  C    -25.007550    5.026980    8.454920
  C    -24.592410    6.072540    9.726130
  H    -25.571340    6.550260   10.116090
  H    -24.122910    5.448180   10.574270
  H    -24.083340    4.385240    8.213430
  H    -25.272970    5.685750    7.546130
  H    -27.213920    4.603220    9.091560
  H    -25.990500    3.277980    9.565370
  C    -23.575660    7.254450    9.241330
  C    -21.912250    6.968960    9.294910
  C    -21.462740    5.513930   10.001060
  H    -20.318990    5.373550    9.888070
  H    -22.012240    4.640460    9.479970
  H    -21.738940    5.536190   11.125020
  H    -21.520050    6.970510    8.209240
  H    -21.414350    7.828350    9.880380
  H    -23.829130    7.536770    8.146000
  H    -23.767150    8.188470    9.902230
  H     19.288760   -6.253310  -11.457330
  H     22.124290   -8.298060   -8.430070
  H    -26.043870    0.636130    5.153870
  H    -28.777120    3.822460    7.093500

----------------------------
CARTESIAN COORDINATES (A.U.)
----------------------------
  NO LB      ZA    FRAG    MASS        X           Y           Z
   0 C     4.0000    0    12.011         37.962292564594563        -12.351930312717514        -20.450899680215876
   1 C     4.0000    0    12.011         40.272615044142668        -11.116880900631939        -20.145652217803573
   2 C     4.0000    0    12.011         41.934440206313020        -12.306217837537957        -18.378172467485690
   3 C     4.0000    0    12.011         40.931297985382258        -14.491440447020475        -17.282244693379397
   4 S     6.0000    0    32.060         38.081099646634193        -14.832214760750494        -18.540065305378722
   5 H     1.0000    0     1.008         40.625143454425675         -8.929031571823272        -19.947079795651131
   6 C     4.0000    0    12.011         44.723789363548818        -11.326961754939965        -17.605746910245379
   7 C     4.0000    0    12.011         45.111958008717579         -8.320237400519201        -16.546895562886622
   8 C     4.0000    0    12.011         48.159368166801670         -7.444783974457502        -15.960097803781393
   9 H     1.0000    0     1.008         48.154265906240084         -5.265457310512820        -16.280557561571758
  10 H     1.0000    0     1.008         49.320529287050924         -8.325736503568910        -17.584298518625371
  11 H     1.0000    0     1.008         44.303476476842050         -6.968270632527919        -18.041498859466277
  12 H     1.0000    0     1.008         44.004124959967584         -8.128203430790123        -14.685685396326241
  13 H     1.0000    0     1.008         45.546557224996789        -12.615301444002117        -16.014427430131629
  14 H     1.0000    0     1.008         46.049885780766715        -11.518220936954135        -19.361831611975717
  15 C     4.0000    0    12.011         49.599717426076445         -7.903477198944207        -13.270356111064579
  16 C     4.0000    0    12.011         52.724814225526046         -7.127385573004089        -13.329353360965602
  17 C     4.0000    0    12.011         53.506064803811768         -4.121606081650286        -12.642796959250671
  18 H     1.0000    0     1.008         55.687470166503765         -3.950566969269072        -12.572404660762105
  19 H     1.0000    0     1.008         52.664380783763242         -3.567708454536627        -10.704353685596931
  20 H     1.0000    0     1.008         52.722414273335957         -2.800970972959418        -14.199043122318841
  21 H     1.0000    0     1.008         53.742753002085401         -8.425759707837363        -11.906370684861560
  22 H     1.0000    0     1.008         53.490720227604321         -7.502704080462189        -15.331688275207220
  23 H     1.0000    0     1.008         49.458592678395213        -10.008896673791231        -12.713113668693882
  24 H     1.0000    0     1.008         48.658728297690359         -6.696433528163348        -11.714582379529892
  25 C     4.0000    0    12.011        -50.036452032886992          2.643405607913064         10.862618249312835
  26 C     4.0000    0    12.011        -48.937708566841152          3.894064157864827         12.908265686543928
  27 C     4.0000    0    12.011        -50.529254814090976          5.757315228649842         14.046485531527377
  28 C     4.0000    0    12.011        -52.896665920144841          5.979036795942823         12.893790384358093
  29 S     6.0000    0    32.060        -52.896117899566008          3.887506808180120         10.559808533613293
  30 H     1.0000    0     1.008        -46.939172002128721          3.495785477879584         13.620087726669386
  31 C     4.0000    0    12.011        -49.741635858733936          7.522319437732292         16.419792583119079
  32 C     4.0000    0    12.011        -47.257420780342393          9.499615480699454         15.977483284213468
  33 C     4.0000    0    12.011        -46.472919873106328         11.475437537282158         18.379722042915503
  34 H     1.0000    0     1.008        -48.322829477385859         12.378197505979017         19.116639646099433
  35 H     1.0000    0     1.008        -45.585693453230306         10.295568128307085         19.982474366139474
  36 H     1.0000    0     1.008        -45.510916990111035          8.286902631516829         15.521133320132828
  37 H     1.0000    0     1.008        -47.758991890807778         10.744510365942755         14.260119070967175
  38 H     1.0000    0     1.008        -51.426855830442236          8.698825134188985         17.180558530113093
  39 H     1.0000    0     1.008        -49.114927083680293          6.194484472471184         18.075929669626323
  40 C     4.0000    0    12.011        -44.551540826441894         13.708923752225024         17.463582813190481
  41 C     4.0000    0    12.011        -41.408151478015945         13.169425838251845         17.564834339445980
  42 C     4.0000    0    12.011        -40.558700683557007         10.419817621612408         18.899264448914476
  43 H     1.0000    0     1.008        -38.397326417884571         10.154537866932541         18.685744293042713
  44 H     1.0000    0     1.008        -41.597105194146728          8.769198535416212         17.914547057789449
  45 H     1.0000    0     1.008        -41.080643041746050         10.461882925353494         21.023241034396602
  46 H     1.0000    0     1.008        -40.667000888292037         13.172354913759424         15.513215367631695
  47 H     1.0000    0     1.008        -40.467256835936553         14.793437580482431         18.671212299072856
  48 H     1.0000    0     1.008        -45.030529709606917         14.242431234353671         15.393709086922518
  49 H     1.0000    0     1.008        -44.913404483826476         15.473965755830152         18.712502815099036
  50 H     1.0000    0     1.008         36.450473862934885        -11.817043330511103        -21.651215925959974
  51 H     1.0000    0     1.008         41.808849007452608        -15.681060842846581        -15.930523589785528
  52 H     1.0000    0     1.008        -49.215781767447666          1.202111485571326          9.739402829832722
  53 H     1.0000    0     1.008        -54.380875722987930          7.223402557868628         13.404772330970397

--------------------------------
INTERNAL COORDINATES (ANGSTROEM)
--------------------------------
 C      0   0   0   0.000000     0.000     0.000
 C      1   0   0   1.395675     0.000     0.000
 C      2   1   0   1.429775   114.102     0.000
 C      3   2   1   1.398325   113.693     0.000
 S      1   2   3   1.658041   105.479     0.000
 H      2   1   3   1.177392   127.560   223.379
 C      3   2   1   1.616899   125.858   180.385
 C      7   3   2   1.699329   119.589    54.291
 C      8   7   3   1.706337   115.369   183.558
 H      9   8   7   1.165654   103.883   152.110
 H      9   8   7   1.154819   104.941    39.923
 H      8   7   3   1.149094   108.119   304.483
 H      8   7   3   1.150674   107.658    63.464
 H      7   3   2   1.167680   109.608   175.914
 H      7   3   2   1.168864   108.623   292.973
 C      9   8   7   1.632725   124.019   272.681
 C     16   9   8   1.704249   113.653   173.743
 C     17  16   9   1.683118   117.524    88.374
 H     18  17  16   1.158492   108.997   174.529
 H     18  17  16   1.156079   109.663    54.537
 H     18  17  16   1.156962   109.217   294.053
 H     17  16   9   1.152933   107.325   210.089
 H     17  16   9   1.151714   108.468   328.300
 H     16   9   8   1.154920   109.622    53.496
 H     16   9   8   1.154874   109.752   293.951
 C      5   1   2  50.019475    90.459   135.886
 C     26   5   1   1.395670    86.593   263.447
 C     27  26   5   1.429784   114.102   155.923
 C     28  27  26   1.398320   113.693     0.000
 S     26   5   1   1.658037   153.404    22.022
 H     27  26   5   1.142271   123.641   336.431
 C     28  27  26   1.619677   124.941   180.884
 C     32  28  27   1.696396   116.622    61.836
 C     33  32  28   1.697502   117.782   177.118
 H     34  33  32   1.156974   107.446   314.088
 H     34  33  32   1.153082   108.475    71.401
 H     33  32  28   1.150787   107.899   299.225
 H     33  32  28   1.153397   106.420    56.965
 H     32  28  27   1.159719   112.387   187.620
 H     32  28  27   1.171228   107.885   304.440
 C     34  33  32   1.632704   112.074   194.183
 C     41  34  33   1.688582   118.793   271.444
 C     42  41  34   1.678636   115.068   354.151
 H     43  42  41   1.157859   109.181   174.296
 H     43  42  41   1.156043   109.756    54.254
 H     43  42  41   1.157613   109.140   293.878
 H     42  41  34   1.154341   107.736   114.421
 H     42  41  34   1.152923   108.392   232.541
 H     41  34  33   1.159181   108.706    33.539
 H     41  34  33   1.160108   108.112   150.334
 H      1   2   3   1.060001   127.260   179.999
 H      4   3   2   1.059999   127.206   180.000
 H     26   5   1   1.059999    46.418   110.077
 H     29  28  27   1.059997   127.206   180.000

---------------------------
INTERNAL COORDINATES (A.U.)
---------------------------
 C      0   0   0   0.000000     0.000     0.000
 C      1   0   0   2.637444     0.000     0.000
 C      2   1   0   2.701883   114.102     0.000
 C      3   2   1   2.642451   113.693     0.000
 S      1   2   3   3.133243   105.479     0.000
 H      2   1   3   2.224948   127.560   223.379
 C      3   2   1   3.055495   125.858   180.385
 C      7   3   2   3.211266   119.589    54.291
 C      8   7   3   3.224509   115.369   183.558
 H      9   8   7   2.202768   103.883   152.110
 H      9   8   7   2.182292   104.941    39.923
 H      8   7   3   2.171473   108.119   304.483
 H      8   7   3   2.174460   107.658    63.464
 H      7   3   2   2.206596   109.608   175.914
 H      7   3   2   2.208833   108.623   292.973
 C      9   8   7   3.085404   124.019   272.681
 C     16   9   8   3.220563   113.653   173.743
 C     17  16   9   3.180632   117.524    88.374
 H     18  17  16   2.189232   108.997   174.529
 H     18  17  16   2.184673   109.663    54.537
 H     18  17  16   2.186341   109.217   294.053
 H     17  16   9   2.178728   107.325   210.089
 H     17  16   9   2.176424   108.468   328.300
 H     16   9   8   2.182482   109.622    53.496
 H     16   9   8   2.182395   109.752   293.951
 C      5   1   2  94.523108    90.459   135.886
 C     26   5   1   2.637434    86.593   263.447
 C     27  26   5   2.701901   114.102   155.923
 C     28  27  26   2.642442   113.693     0.000
 S     26   5   1   3.133236   153.404    22.022
 H     27  26   5   2.158579   123.641   336.431
 C     28  27  26   3.060747   124.941   180.884
 C     32  28  27   3.205723   116.622    61.836
 C     33  32  28   3.207813   117.782   177.118
 H     34  33  32   2.186364   107.446   314.088
 H     34  33  32   2.179008   108.475    71.401
 H     33  32  28   2.174673   107.899   299.225
 H     33  32  28   2.179605   106.420    56.965
 H     32  28  27   2.191551   112.387   187.620
 H     32  28  27   2.213301   107.885   304.440
 C     34  33  32   3.085364   112.074   194.183
 C     41  34  33   3.190957   118.793   271.444
 C     42  41  34   3.172163   115.068   354.151
 H     43  42  41   2.188036   109.181   174.296
 H     43  42  41   2.184604   109.756    54.254
 H     43  42  41   2.187572   109.140   293.878
 H     42  41  34   2.181388   107.736   114.421
 H     42  41  34   2.178708   108.392   232.541
 H     41  34  33   2.190534   108.706    33.539
 H     41  34  33   2.192286   108.112   150.334
 H      1   2   3   2.003112   127.260   179.999
 H      4   3   2   2.003108   127.206   180.000
 H     26   5   1   2.003108    46.418   110.077
 H     29  28  27   2.003104   127.206   180.000

----------------------------
SLATER BASIS SET DIM= 120
----------------------------
  0 C     2 shells
 l=0 nsto= 1
    2       1.625000000000        1.000000000000
 l=1 nsto= 1
    2       1.625000000000        1.000000000000
  1 C     2 shells
 l=0 nsto= 1
    2       1.625000000000        1.000000000000
 l=1 nsto= 1
    2       1.625000000000        1.000000000000
  2 C     2 shells
 l=0 nsto= 1
    2       1.625000000000        1.000000000000
 l=1 nsto= 1
    2       1.625000000000        1.000000000000
  3 C     2 shells
 l=0 nsto= 1
    2       1.625000000000        1.000000000000
 l=1 nsto= 1
    2       1.625000000000        1.000000000000
  4 S     2 shells
 l=0 nsto= 1
    3       1.925000000000        1.000000000000
 l=1 nsto= 1
    3       1.925000000000        1.000000000000
  5 H     1 shells
 l=0 nsto= 1
    1       1.200000000000        1.000000000000
  6 C     2 shells
 l=0 nsto= 1
    2       1.625000000000        1.000000000000
 l=1 nsto= 1
    2       1.625000000000        1.000000000000
  7 C     2 shells
 l=0 nsto= 1
    2       1.625000000000        1.000000000000
 l=1 nsto= 1
    2       1.625000000000        1.000000000000
  8 C     2 shells
 l=0 nsto= 1
    2       1.625000000000        1.000000000000
 l=1 nsto= 1
    2       1.625000000000        1.000000000000
  9 H     1 shells
 l=0 nsto= 1
    1       1.200000000000        1.000000000000
 10 H     1 shells
 l=0 nsto= 1
    1       1.200000000000        1.000000000000
 11 H     1 shells
 l=0 nsto= 1
    1       1.200000000000        1.000000000000
 12 H     1 shells
 l=0 nsto= 1
    1       1.200000000000        1.000000000000
 13 H     1 shells
 l=0 nsto= 1
    1       1.200000000000        1.000000000000
 14 H     1 shells
 l=0 nsto= 1
    1       1.200000000000        1.000000000000
 15 C     2 shells
 l=0 nsto= 1
    2       1.625000000000        1.000000000000
 l=1 nsto= 1
    2       1.625000000000        1.000000000000
 16 C     2 shells
 l=0 nsto= 1
    2       1.625000000000        1.000000000000
 l=1 nsto= 1
    2       1.625000000000        1.000000000000
 17 C     2 shells
 l=0 nsto= 1
    2       1.625000000000        1.000000000000
 l=1 nsto= 1
    2       1.625000000000        1.000000000000
 18 H     1 shells
 l=0 nsto= 1
    1       1.200000000000        1.000000000000
 19 H     1 shells
 l=0 nsto= 1
    1       1.200000000000        1.000000000000
 20 H     1 shells
 l=0 nsto= 1
    1       1.200000000000        1.000000000000
 21 H     1 shells
 l=0 nsto= 1
    1       1.200000000000        1.000000000000
 22 H     1 shells
 l=0 nsto= 1
    1       1.200000000000        1.000000000000
 23 H     1 shells
 l=0 nsto= 1
    1       1.200000000000        1.000000000000
 24 H     1 shells
 l=0 nsto= 1
    1       1.200000000000        1.000000000000
 25 C     2 shells
 l=0 nsto= 1
    2       1.625000000000        1.000000000000
 l=1 nsto= 1
    2       1.625000000000        1.000000000000
 26 C     2 shells
 l=0 nsto= 1
    2       1.625000000000        1.000000000000
 l=1 nsto= 1
    2       1.625000000000        1.000000000000
 27 C     2 shells
 l=0 nsto= 1
    2       1.625000000000        1.000000000000
 l=1 nsto= 1
    2       1.625000000000        1.000000000000
 28 C     2 shells
 l=0 nsto= 1
    2       1.625000000000        1.000000000000
 l=1 nsto= 1
    2       1.625000000000        1.000000000000
 29 S     2 shells
 l=0 nsto= 1
    3       1.925000000000        1.000000000000
 l=1 nsto= 1
    3       1.925000000000        1.000000000000
 30 H     1 shells
 l=0 nsto= 1
    1       1.200000000000        1.000000000000
 31 C     2 shells
 l=0 nsto= 1
    2       1.625000000000        1.000000000000
 l=1 nsto= 1
    2       1.625000000000        1.000000000000
 32 C     2 shells
 l=0 nsto= 1
    2       1.625000000000        1.000000000000
 l=1 nsto= 1
    2       1.625000000000        1.000000000000
 33 C     2 shells
 l=0 nsto= 1
    2       1.625000000000        1.000000000000
 l=1 nsto= 1
    2       1.625000000000        1.000000000000
 34 H     1 shells
 l=0 nsto= 1
    1       1.200000000000        1.000000000000
 35 H     1 shells
 l=0 nsto= 1
    1       1.200000000000        1.000000000000
 36 H     1 shells
 l=0 nsto= 1
    1       1.200000000000        1.000000000000
 37 H     1 shells
 l=0 nsto= 1
    1       1.200000000000        1.000000000000
 38 H     1 shells
 l=0 nsto= 1
    1       1.200000000000        1.000000000000
 39 H     1 shells
 l=0 nsto= 1
    1       1.200000000000        1.000000000000
 40 C     2 shells
 l=0 nsto= 1
    2       1.625000000000        1.000000000000
 l=1 nsto= 1
    2       1.625000000000        1.000000000000
 41 C     2 shells
 l=0 nsto= 1
    2       1.625000000000        1.000000000000
 l=1 nsto= 1
    2       1.625000000000        1.000000000000
 42 C     2 shells
 l=0 nsto= 1
    2       1.625000000000        1.000000000000
 l=1 nsto= 1
    2       1.625000000000        1.000000000000
 43 H     1 shells
 l=0 nsto= 1
    1       1.200000000000        1.000000000000
 44 H     1 shells
 l=0 nsto= 1
    1       1.200000000000        1.000000000000
 45 H     1 shells
 l=0 nsto= 1
    1       1.200000000000        1.000000000000
 46 H     1 shells
 l=0 nsto= 1
    1       1.200000000000        1.000000000000
 47 H     1 shells
 l=0 nsto= 1
    1       1.200000000000        1.000000000000
 48 H     1 shells
 l=0 nsto= 1
    1       1.200000000000        1.000000000000
 49 H     1 shells
 l=0 nsto= 1
    1       1.200000000000        1.000000000000
 50 H     1 shells
 l=0 nsto= 1
    1       1.200000000000        1.000000000000
 51 H     1 shells
 l=0 nsto= 1
    1       1.200000000000        1.000000000000
 52 H     1 shells
 l=0 nsto= 1
    1       1.200000000000        1.000000000000
 53 H     1 shells
 l=0 nsto= 1
    1       1.200000000000        1.000000000000
------------------------------------------------------------------------------
                           ORCA NDO INTEGRAL CALCULATION
------------------------------------------------------------------------------

--------------
NDO PARAMETERS
--------------

Gamma integral treatment              ... Mataga-Nishimoto
Nuclear repulsuion treatment          ... Direct (ZA*ZB/RAB)
Interaction factors:
s-s (sigma) =    1.0000
s-p (sigma) =    1.0000
s-d (sigma) =    1.0000
p-p (sigma) =    1.2670  p-p(pi) =    0.5850
p-d (sigma) =    1.0000  p-d(pi) =    1.0000
d-d (sigma) =    1.0000  d-d(pi) =    1.0000 d-d (delta) =    1.0000

fGamma parameter for Mataga-Nishimoto gamma integrals:    1.2000

--------------------------
Parameters for Element H :
--------------------------
 One-electron parameters (in eV)
  U(s)  =   -13.060000 Beta(s) =    12.000000 Neff(s) =     1.000000
 One-center electron repulsion parameters (in eV)
  G(s,s)=    12.850000
--------------------------
Parameters for Element C :
--------------------------
 One-electron parameters (in eV)
  U(s)  =   -50.870766 Beta(s) =    17.000000 Neff(s) =     2.000000
  U(p)  =   -41.599980 Beta(p) =    17.000000 Neff(p) =     2.000000 
 One-center electron repulsion parameters (in eV)
  G(s,s)=    11.110000
  G(s,p)=    11.110000 G(p,p)  =    11.110000
 Slater-Condon parameters (in eV)
 F2(p,p)=     4.5098 G1(s,p)=    6.8977
--------------------------
Parameters for Element S :
--------------------------
 One-electron parameters (in eV)
  U(s)  =   -69.509597 Beta(s) =    15.000000 Neff(s) =     2.000000
  U(p)  =   -60.725746 Beta(p) =    15.000000 Neff(p) =     4.000000 
 One-center electron repulsion parameters (in eV)
  G(s,s)=    10.090000
  G(s,p)=    10.090000 G(p,p)  =    10.090000
 Slater-Condon parameters (in eV)
 F2(p,p)=     4.5377 G1(s,p)=    3.0756

 Number of atoms                    ....   54
 Number of basis functions          ....  120

 Overlap integrals                  .... done
 One electron matrix                .... done
 Nuclear repulsion                  .... done
 Integral list                      .... done
 Electron-electron repulsion        .... done
-------------------------------------------------------------------------------
                                 ORCA SCF
-------------------------------------------------------------------------------

------------
SCF SETTINGS
------------
Hamiltonian:
 ZDO-Hamiltonian        Method          .... INDO


General Settings:
 Integral files         IntName         .... /Users/mattyjones/GoogleDrive/Boise/Code/MorphCT/tests/output_EZ/donor_polymer/chromophores/input_orca/pair/00005-00026
 Hartree-Fock type      HFTyp           .... RHF
 Total Charge           Charge          ....    0
 Multiplicity           Mult            ....    1
 Number of Electrons    NEL             ....  124
 Basis Dimension        Dim             ....  120
 Nuclear Repulsion      ENuc            ....    621.9842908147 Eh

Convergence Acceleration:
 DIIS                   CNVDIIS         .... on
   Start iteration      DIISMaxIt       ....    12
   Startup error        DIISStart       ....  0.200000
   # of expansion vecs  DIISMaxEq       ....     5
   Bias factor          DIISBfac        ....   1.050
   Max. coefficient     DIISMaxC        ....  10.000
 Newton-Raphson         CNVNR           .... off
 SOSCF                  CNVSOSCF        .... on
   Start iteration      SOSCFMaxIt      ....   150
   Startup grad/error   SOSCFStart      ....  0.003300
 Level Shifting         CNVShift        .... on
   Level shift para.    LevelShift      ....    0.2500
   Turn off err/grad.   ShiftErr        ....    0.0010
 Zerner damping         CNVZerner       .... off
 Static damping         CNVDamp         .... on
   Fraction old density DampFac         ....    0.7000
   Max. Damping (<1)    DampMax         ....    0.9800
   Min. Damping (>=0)   DampMin         ....    0.0000
   Turn off err/grad.   DampErr         ....    0.1000
 Fernandez-Rico         CNVRico         .... off

SCF Procedure:
 Maximum # iterations   MaxIter         ....   125
 SCF integral mode      SCFMode         .... Conventional
 Integral Buffer length BufferLength    .... 1048576
 Integral index format  IndFormat       ....     0
 Integral value format  ValFormat       ....     0
 Integral Storage       Thresh          ....  1.000e-08 Eh

Convergence Tolerance:
 Convergence Check Mode ConvCheckMode   .... Total+1el-Energy
 Energy Change          TolE            ....  1.000e-06 Eh
 1-El. energy change                    ....  1.000e-03 Eh
 Orbital Gradient       TolG            ....  5.000e-05
 Orbital Rotation angle TolX            ....  5.000e-05
 DIIS Error             TolErr          ....  1.000e-06


Diagonalization of the overlap matrix:
Smallest eigenvalue                        ... 1.689e-01
Time for diagonalization                   ...    0.003 sec
Threshold for overlap eigenvalues          ... 1.000e-08
Number of eigenvalues below threshold      ... 0
Time for construction of square roots      ...    0.001 sec
Total time needed                          ...    0.004 sec

-------------------------------
INITIAL GUESS: EXTENDED HUECKEL
-------------------------------
EHT matrix was read from disk
EHT matrix was diagonalized
Initial density was built
                      ------------------
                      INITIAL GUESS DONE
                      ------------------

 InCore treatment chosen:
   Memory dedicated               ...    1024 MB
   Memory needed                  ...      0 MB
   Number of tiny    integrals    ...       0
   Number of small   integrals    ...       0
   Number of regular integrals    ...    7392

--------------
SCF ITERATIONS
--------------
ITER       Energy         Delta-E        Max-DP      RMS-DP      [F,P]     Damp
  0    -21.0324642206   0.000000000000 0.04298936  0.00147538  0.0997758 0.7000
  1    -21.0756561830  -0.043191962412 0.03994688  0.00139050  0.0712297 0.7000
                               ***Turning on DIIS***
  2    -21.1075505170  -0.031894334043 0.09901483  0.00356488  0.0465323 0.0000
  3    -21.1914952535  -0.083944736446 0.01576811  0.00073193  0.0201834 0.0000
  4    -21.1749765159   0.016518737544 0.01083361  0.00050824  0.0072782 0.0000
  5    -21.1926548304  -0.017678314479 0.00728196  0.00034612  0.0040679 0.0000
  6    -21.1947416470  -0.002086816595 0.00575047  0.00024851  0.0021360 0.0000
                      *** Initiating the SOSCF procedure ***
                           *** Shutting down DIIS ***
                      *** Re-Reading the Fockian *** 
                      *** Removing any level shift *** 
ITER      Energy       Delta-E        Grad      Rot      Max-DP    RMS-DP
  7    -21.19109116   0.0036504873  0.003225  0.003225  0.003525  0.000143
  8    -21.18915000   0.0019411623  0.000943  0.002680  0.001773  0.000068
  9    -21.18916725  -0.0000172529  0.000417  0.002697  0.002165  0.000075
 10    -21.18917391  -0.0000066627  0.000042  0.000080  0.000147  0.000004
                 **** Energy Check signals convergence ****
              ***Rediagonalizing the Fockian in SOSCF/NRSCF***

               *****************************************************
               *                     SUCCESS                       *
               *           SCF CONVERGED AFTER  11 CYCLES          *
               *****************************************************


----------------
TOTAL SCF ENERGY
----------------

Total Energy       :          -21.18917398 Eh            -576.58674 eV

Components:
Nuclear Repulsion  :          621.98429081 Eh           16925.05301 eV
Electronic Energy  :         -643.17346479 Eh          -17501.63974 eV

One Electron Energy:        -1195.96378290 Eh          -32543.82903 eV
Two Electron Energy:          552.79031810 Eh           15042.18929 eV


---------------
SCF CONVERGENCE
---------------

  Last Energy change         ...   -6.7169e-08  Tolerance :   1.0000e-06
  Last MAX-Density change    ...    6.5057e-05  Tolerance :   1.0000e-05
  Last RMS-Density change    ...    1.7257e-06  Tolerance :   1.0000e-06
  Last Orbital Gradient      ...    1.7701e-05  Tolerance :   5.0000e-05
  Last Orbital Rotation      ...    3.5876e-05  Tolerance :   5.0000e-05

             **** THE GBW FILE WAS UPDATED (/Users/mattyjones/GoogleDrive/Boise/Code/MorphCT/tests/output_EZ/donor_polymer/chromophores/input_orca/pair/00005-00026.gbw) ****
             **** DENSITY FILE WAS UPDATED (/Users/mattyjones/GoogleDrive/Boise/Code/MorphCT/tests/output_EZ/donor_polymer/chromophores/input_orca/pair/00005-00026.scfp.tmp) ****
             **** ENERGY FILE WAS UPDATED (/Users/mattyjones/GoogleDrive/Boise/Code/MorphCT/tests/output_EZ/donor_polymer/chromophores/input_orca/pair/00005-00026.en.tmp) ****
----------------
ORBITAL ENERGIES
----------------

  NO   OCC          E(Eh)            E(eV) 
   0   2.0000      -1.560133       -42.4534 
   1   2.0000      -1.556206       -42.3465 
   2   2.0000      -1.409619       -38.3577 
   3   2.0000      -1.391552       -37.8661 
   4   2.0000      -1.293047       -35.1856 
   5   2.0000      -1.285383       -34.9770 
   6   2.0000      -1.178759       -32.0757 
   7   2.0000      -1.174573       -31.9618 
   8   2.0000      -1.112309       -30.2675 
   9   2.0000      -1.109790       -30.1989 
  10   2.0000      -1.045996       -28.4630 
  11   2.0000      -1.041395       -28.3378 
  12   2.0000      -0.965374       -26.2692 
  13   2.0000      -0.960959       -26.1490 
  14   2.0000      -0.910540       -24.7771 
  15   2.0000      -0.901827       -24.5400 
  16   2.0000      -0.860661       -23.4198 
  17   2.0000      -0.835533       -22.7360 
  18   2.0000      -0.828552       -22.5461 
  19   2.0000      -0.822966       -22.3940 
  20   2.0000      -0.776818       -21.1383 
  21   2.0000      -0.770081       -20.9550 
  22   2.0000      -0.734726       -19.9929 
  23   2.0000      -0.732494       -19.9322 
  24   2.0000      -0.701451       -19.0875 
  25   2.0000      -0.693621       -18.8744 
  26   2.0000      -0.681439       -18.5429 
  27   2.0000      -0.673778       -18.3344 
  28   2.0000      -0.649859       -17.6836 
  29   2.0000      -0.633242       -17.2314 
  30   2.0000      -0.617803       -16.8113 
  31   2.0000      -0.613094       -16.6831 
  32   2.0000      -0.599792       -16.3212 
  33   2.0000      -0.583253       -15.8711 
  34   2.0000      -0.577586       -15.7169 
  35   2.0000      -0.577459       -15.7135 
  36   2.0000      -0.570668       -15.5287 
  37   2.0000      -0.559559       -15.2264 
  38   2.0000      -0.559344       -15.2205 
  39   2.0000      -0.544249       -14.8098 
  40   2.0000      -0.531672       -14.4675 
  41   2.0000      -0.529483       -14.4080 
  42   2.0000      -0.521081       -14.1793 
  43   2.0000      -0.521023       -14.1778 
  44   2.0000      -0.506218       -13.7749 
  45   2.0000      -0.504320       -13.7233 
  46   2.0000      -0.497643       -13.5416 
  47   2.0000      -0.495226       -13.4758 
  48   2.0000      -0.489669       -13.3246 
  49   2.0000      -0.488280       -13.2868 
  50   2.0000      -0.481413       -13.0999 
  51   2.0000      -0.479842       -13.0572 
  52   2.0000      -0.472796       -12.8654 
  53   2.0000      -0.468419       -12.7463 
  54   2.0000      -0.464282       -12.6338 
  55   2.0000      -0.454378       -12.3642 
  56   2.0000      -0.437817       -11.9136 
  57   2.0000      -0.436970       -11.8905 
  58   2.0000      -0.356916        -9.7122 
  59   2.0000      -0.349449        -9.5090 
  60   2.0000      -0.304730        -8.2921 
  61   2.0000      -0.304483        -8.2854 
  62   0.0000       0.002361         0.0643 
  63   0.0000       0.007894         0.2148 
  64   0.0000       0.057964         1.5773 
  65   0.0000       0.068054         1.8518 
  66   0.0000       0.073531         2.0009 
  67   0.0000       0.078034         2.1234 
  68   0.0000       0.089616         2.4386 
  69   0.0000       0.090140         2.4528 
  70   0.0000       0.103603         2.8192 
  71   0.0000       0.104697         2.8489 
  72   0.0000       0.107858         2.9350 
  73   0.0000       0.109339         2.9753 
  74   0.0000       0.121896         3.3170 
  75   0.0000       0.126040         3.4297 
  76   0.0000       0.141882         3.8608 
  77   0.0000       0.144249         3.9252 
  78   0.0000       0.155194         4.2230 
  79   0.0000       0.158710         4.3187 
  80   0.0000       0.163996         4.4626 
  81   0.0000       0.169906         4.6234 
  82   0.0000       0.170065         4.6277 
  83   0.0000       0.178752         4.8641 
  84   0.0000       0.199522         5.4293 
  85   0.0000       0.205474         5.5912 
  86   0.0000       0.233099         6.3429 
  87   0.0000       0.234153         6.3716 
  88   0.0000       0.234780         6.3887 
  89   0.0000       0.235106         6.3976 
  90   0.0000       0.236798         6.4436 
  91   0.0000       0.237391         6.4597 
  92   0.0000       0.238786         6.4977 
  93   0.0000       0.240057         6.5323 
  94   0.0000       0.241232         6.5642 
  95   0.0000       0.242059         6.5868 
  96   0.0000       0.242608         6.6017 
  97   0.0000       0.243310         6.6208 
  98   0.0000       0.244236         6.6460 
  99   0.0000       0.244373         6.6497 
 100   0.0000       0.251395         6.8408 
 101   0.0000       0.256014         6.9665 
 102   0.0000       0.257399         7.0042 
 103   0.0000       0.260316         7.0836 
 104   0.0000       0.265301         7.2192 
 105   0.0000       0.267076         7.2675 
 106   0.0000       0.275251         7.4899 
 107   0.0000       0.283648         7.7185 
 108   0.0000       0.304090         8.2747 
 109   0.0000       0.304935         8.2977 
 110   0.0000       0.309245         8.4150 
 111   0.0000       0.310381         8.4459 
 112   0.0000       0.338628         9.2145 
 113   0.0000       0.339398         9.2355 
 114   0.0000       0.353673         9.6239 
 115   0.0000       0.353711         9.6250 
 116   0.0000       0.408998        11.1294 
 117   0.0000       0.409263        11.1366 
 118   0.0000       0.431053        11.7295 
 119   0.0000       0.433322        11.7913 
-------
TIMINGS
-------

Total SCF time: 0 days 0 hours 0 min 0 sec 

Total time                  ....       0.139 sec
Sum of individual times     ....       0.108 sec  ( 77.9%)

Fock matrix formation       ....       0.048 sec  ( 34.8%)
Diagonalization             ....       0.026 sec  ( 18.4%)
Density matrix formation    ....       0.005 sec  (  3.9%)
Population analysis         ....       0.000 sec  (  0.0%)
Initial guess               ....       0.003 sec  (  2.1%)
Orbital Transformation      ....       0.000 sec  (  0.0%)
Orbital Orthonormalization  ....       0.000 sec  (  0.0%)
DIIS solution               ....       0.019 sec  ( 14.0%)
SOSCF solution              ....       0.007 sec  (  4.8%)

-------------------------   --------------------
FINAL SINGLE POINT ENERGY       -21.189173980140
-------------------------   --------------------


                            ***************************************
                            *     ORCA property calculations      *
                            ***************************************

                                    ---------------------
                                    Active property flags
                                    ---------------------
   (+) Dipole Moment


------------------------------------------------------------------------------
                       ORCA ELECTRIC PROPERTIES CALCULATION
------------------------------------------------------------------------------

Dipole Moment Calculation                       ... on
Quadrupole Moment Calculation                   ... off
Polarizability Calculation                      ... off
GBWName                                         ... /Users/mattyjones/GoogleDrive/Boise/Code/MorphCT/tests/output_EZ/donor_polymer/chromophores/input_orca/pair/00005-00026.gbw
Electron density file                           ... /Users/mattyjones/GoogleDrive/Boise/Code/MorphCT/tests/output_EZ/donor_polymer/chromophores/input_orca/pair/00005-00026.scfp.tmp

-------------
DIPOLE MOMENT
-------------
                                X             Y             Z
Electronic contribution:   -204.49459    -156.69747    -117.89958
Nuclear contribution   :    113.79682      83.58351      62.12914
                        -----------------------------------------
Total Dipole Moment    :    -90.69777     -73.11396     -55.77044
                        -----------------------------------------
Magnitude (a.u.)       :    129.15912
Magnitude (Debye)      :    328.29640


Timings for individual modules:

Sum of individual times         ...        0.231 sec (=   0.004 min)
STO integral calculation        ...        0.048 sec (=   0.001 min)  20.9 %
SCF iterations                  ...        0.182 sec (=   0.003 min)  79.1 %
                             ****ORCA TERMINATED NORMALLY****
TOTAL RUN TIME: 0 days 0 hours 0 minutes 0 seconds 565 msec

