
                                 *****************
                                 * O   R   C   A *
                                 *****************

           --- An Ab Initio, DFT and Semiempirical electronic structure package ---

                  #######################################################
                  #                        -***-                        #
                  #  Department of molecular theory and spectroscopy    #
                  #              Directorship: Frank Neese              #
                  # Max Planck Institute for Chemical Energy Conversion #
                  #                  D-45470 Muelheim/Ruhr              #
                  #                       Germany                       #
                  #                                                     #
                  #                  All rights reserved                #
                  #                        -***-                        #
                  #######################################################


                         Program Version 3.0.3 - RELEASE   -


 With contributions from (in alphabetic order):
   Ute Becker             : Parallelization
   Dmytro Bykov           : SCF Hessian
   Dmitry Ganyushin       : Spin-Orbit,Spin-Spin,Magnetic field MRCI
   Andreas Hansen         : Spin unrestricted coupled pair/coupled cluster methods
   Dimitrios Liakos       : Extrapolation schemes; parallel MDCI
   Robert Izsak           : Overlap fitted RIJCOSX, COSX-SCS-MP3
   Christian Kollmar      : KDIIS, OOCD, Brueckner-CCSD(T), CCSD density
   Simone Kossmann        : Meta GGA functionals, TD-DFT gradient, OOMP2, MP2 Hessian
   Taras Petrenko         : DFT Hessian,TD-DFT gradient, ASA and ECA modules, normal mode analysis, Resonance Raman, ABS, FL, XAS/XES, NRVS
   Christoph Reimann      : Effective Core Potentials
   Michael Roemelt        : Restricted open shell CIS
   Christoph Riplinger    : Improved optimizer, TS searches, QM/MM, DLPNO-CCSD
   Barbara Sandhoefer     : DKH picture change effects
   Igor Schapiro          : Molecular dynamics
   Kantharuban Sivalingam : CASSCF convergence, NEVPT2
   Boris Wezisla          : Elementary symmetry handling
   Frank Wennmohs         : Technical directorship


 We gratefully acknowledge several colleagues who have allowed us to
 interface, adapt or use parts of their codes:
   Stefan Grimme, W. Hujo, H. Kruse, T. Risthaus : VdW corrections, initial TS optimization,
                                                   DFT functionals, gCP
   Ed Valeev                                     : LibInt (2-el integral package), F12 methods
   Garnet Chan, S. Sharma, R. Olivares           : DMRG
   Ulf Ekstrom                                   : XCFun DFT Library
   Mihaly Kallay                                 : mrcc  (arbitrary order and MRCC methods)
   Andreas Klamt, Michael Diedenhofen            : otool_cosmo (COSMO solvation model)
   Frank Weinhold                                : gennbo (NPA and NBO analysis)
   Christopher J. Cramer and Donald G. Truhlar   : smd solvation model


 Your calculation uses the libint2 library for the computation of 2-el integrals
 For citations please refer to: http://libint.valeyev.net

 This ORCA versions uses:
   CBLAS   interface :  Fast vector & matrix operations
   LAPACKE interface :  Fast linear algebra routines
   SCALAPACK package :  Parallel linear algebra routines


leaving
================================================================================
                                        WARNINGS
                       Please study these warnings very carefully!
================================================================================
Now building the actual basis set

WARNING: Direct SCF is incompatible with Method<>HF and Method<>DFT
  ===> : conventional SCF is chosen

WARNING: The NDO methods need Guess=HUECKEL or Guess=HCORE or Guess=MOREAD
  ===> : Guess is set to Hueckel

WARNING: The NDO methods need %rel::SOCType==1
  ===> : %rel::SOCType is set to 1

WARNING: The NDO methods cannot have frozencore=1
  ===> : %method FrozenCore=0 end


INFO   : the flag for use of LIBINT has been found!

================================================================================
                                       INPUT FILE
================================================================================
NAME = /Users/mattyjones/GoogleDrive/Boise/Code/MorphCT/tests/output_EZ/donor_polymer/chromophores/input_orca/pair/00009-00027.inp
|  1> # ================================================================
|  2> # Orca input file made by Matty Jones
|  3> # ================================================================
|  4> ! ZINDO/S 
|  5> ! NOPOP
|  6> ! NOMOPRINT
|  7> * xyz 0   1
|  8>  C  -13.74964  -11.16793  -3.41375
|  9>  C  -12.58954  -10.40885  -3.25295
| 10>  C  -11.72813  -10.87269  -2.21031
| 11>  C  -12.21048  -12.00375  -1.54445
| 12>  S  -13.65702  -12.36529  -2.27058
| 13>  H  -12.40674  -9.44220  -3.82675
| 14>  C  -10.37593  -10.02633  -1.98060
| 15>  C  -9.55617  -9.67745  -3.43908
| 16>  C  -8.28117  -8.57605  -3.28332
| 17>  H  -8.60636  -7.87366  -2.41328
| 18>  H  -8.33944  -7.94710  -4.26445
| 19>  H  -9.12080  -10.67107  -3.82895
| 20>  H  -10.29482  -9.25174  -4.20821
| 21>  H  -10.61092  -9.02364  -1.45919
| 22>  H  -9.63203  -10.62732  -1.31324
| 23>  C  -6.71145  -8.92380  -3.05197
| 24>  C  -5.78582  -8.88854  -4.46894
| 25>  C  -5.23575  -7.33990  -4.85432
| 26>  H  -6.06988  -6.57024  -4.62879
| 27>  H  -4.96778  -7.30159  -5.97934
| 28>  H  -4.29900  -7.09608  -4.22126
| 29>  H  -4.86672  -9.56535  -4.31284
| 30>  H  -6.42031  -9.28676  -5.34109
| 31>  H  -6.60716  -9.97690  -2.58844
| 32>  H  -6.25439  -8.15007  -2.32238
| 33>  C  14.10252  9.25564  3.09192
| 34>  C  13.01720  8.55985  3.62656
| 35>  C  11.97570  9.40012  4.13003
| 36>  C  12.23996  10.76632  3.99224
| 37>  S  13.72739  10.86139  3.26497
| 38>  H  12.51536  7.53340  3.33896
| 39>  C  10.56958  8.95090  4.79273
| 40>  C  9.38317  8.54955  3.63970
| 41>  C  8.51267  9.91732  3.08756
| 42>  H  9.09156  10.84953  3.43181
| 43>  H  8.60231  9.87232  1.92910
| 44>  H  9.88853  8.04795  2.74061
| 45>  H  8.63316  7.83052  4.13073
| 46>  H  10.13712  9.75005  5.50722
| 47>  H  10.73845  7.98538  5.42884
| 48>  C  6.93647  10.12198  3.46126
| 49>  C  5.97840  9.70147  2.12162
| 50>  C  4.31727  9.60207  2.35050
| 51>  H  4.08450  8.67745  3.00746
| 52>  H  3.80143  9.48086  1.32044
| 53>  H  3.93161  10.55976  2.86970
| 54>  H  6.35039  8.68605  1.72515
| 55>  H  6.15911  10.51446  1.32002
| 56>  H  6.63487  9.45191  4.34937
| 57>  H  6.72242  11.22488  3.72606
| 58>  H  -14.52618  -11.01188  -4.11818
| 59>  H  -11.74833  -12.52164  -0.74332
| 60>  H  14.98132  8.84427  2.66521
| 61>  H  11.61948  11.57243  4.29024
| 62> *
| 63> 
| 64>                          ****END OF INPUT****
================================================================================

                       ****************************
                       * Single Point Calculation *
                       ****************************

---------------------------------
CARTESIAN COORDINATES (ANGSTROEM)
---------------------------------
  C    -13.749640  -11.167930   -3.413750
  C    -12.589540  -10.408850   -3.252950
  C    -11.728130  -10.872690   -2.210310
  C    -12.210480  -12.003750   -1.544450
  S    -13.657020  -12.365290   -2.270580
  H    -12.406740   -9.442200   -3.826750
  C    -10.375930  -10.026330   -1.980600
  C     -9.556170   -9.677450   -3.439080
  C     -8.281170   -8.576050   -3.283320
  H     -8.606360   -7.873660   -2.413280
  H     -8.339440   -7.947100   -4.264450
  H     -9.120800  -10.671070   -3.828950
  H    -10.294820   -9.251740   -4.208210
  H    -10.610920   -9.023640   -1.459190
  H     -9.632030  -10.627320   -1.313240
  C     -6.711450   -8.923800   -3.051970
  C     -5.785820   -8.888540   -4.468940
  C     -5.235750   -7.339900   -4.854320
  H     -6.069880   -6.570240   -4.628790
  H     -4.967780   -7.301590   -5.979340
  H     -4.299000   -7.096080   -4.221260
  H     -4.866720   -9.565350   -4.312840
  H     -6.420310   -9.286760   -5.341090
  H     -6.607160   -9.976900   -2.588440
  H     -6.254390   -8.150070   -2.322380
  C     14.102520    9.255640    3.091920
  C     13.017200    8.559850    3.626560
  C     11.975700    9.400120    4.130030
  C     12.239960   10.766320    3.992240
  S     13.727390   10.861390    3.264970
  H     12.515360    7.533400    3.338960
  C     10.569580    8.950900    4.792730
  C      9.383170    8.549550    3.639700
  C      8.512670    9.917320    3.087560
  H      9.091560   10.849530    3.431810
  H      8.602310    9.872320    1.929100
  H      9.888530    8.047950    2.740610
  H      8.633160    7.830520    4.130730
  H     10.137120    9.750050    5.507220
  H     10.738450    7.985380    5.428840
  C      6.936470   10.121980    3.461260
  C      5.978400    9.701470    2.121620
  C      4.317270    9.602070    2.350500
  H      4.084500    8.677450    3.007460
  H      3.801430    9.480860    1.320440
  H      3.931610   10.559760    2.869700
  H      6.350390    8.686050    1.725150
  H      6.159110   10.514460    1.320020
  H      6.634870    9.451910    4.349370
  H      6.722420   11.224880    3.726060
  H    -14.526180  -11.011880   -4.118180
  H    -11.748330  -12.521640   -0.743320
  H     14.981320    8.844270    2.665210
  H     11.619480   11.572430    4.290240

----------------------------
CARTESIAN COORDINATES (A.U.)
----------------------------
  NO LB      ZA    FRAG    MASS        X           Y           Z
   0 C     4.0000    0    12.011        -25.983054040008998        -21.104329182803163         -6.451052589673672
   1 C     4.0000    0    12.011        -23.790782752046955        -19.669875869066217         -6.147184627339136
   2 C     4.0000    0    12.011        -22.162953763025850        -20.546406439024256         -4.176880571067482
   3 C     4.0000    0    12.011        -23.074463163722765        -22.683800080057225         -2.918587527534677
   4 S     6.0000    0    32.060        -25.808027605485211        -23.367011666515115         -4.290774365158915
   5 H     1.0000    0     1.008        -23.445340814766148        -17.843172101711243         -7.231509482983150
   6 C     4.0000    0    12.011        -19.607666084737534        -18.947017828318664         -3.742791580844431
   7 C     4.0000    0    12.011        -18.058544189194247        -18.287730174716216         -6.498919352645898
   8 C     4.0000    0    12.011        -15.649143368444651        -16.206385810815352         -6.204575610026324
   9 H     1.0000    0     1.008        -16.263663409934505        -14.879061071610403         -4.560438284469478
  10 H     1.0000    0     1.008        -15.759257710268242        -15.017842558885580         -8.058642611800481
  11 H     1.0000    0     1.008        -17.235814122268952        -20.165399855903051         -7.235666880477776
  12 H     1.0000    0     1.008        -19.454390398015178        -17.483254862244600         -7.952364414028751
  13 H     1.0000    0     1.008        -20.051732828947689        -17.052208331097162         -2.757469477356551
  14 H     1.0000    0     1.008        -18.201898813713512        -20.082724337543993         -2.481663948110744
  15 C     4.0000    0    12.011        -12.682802461505785        -16.863538073886467         -5.767387468943642
  16 C     4.0000    0    12.011        -10.933615260164256        -16.796906330404404         -8.445072708926038
  17 C     4.0000    0    12.011         -9.894133605678194        -13.870400850368595         -9.173335366416611
  18 H     1.0000    0     1.008        -11.470410865765928        -12.415954234134764         -8.747145431433351
  19 H     1.0000    0     1.008         -9.387743693571316        -13.798005442178072        -11.299315061600696
  20 H     1.0000    0     1.008         -8.123932649727461        -13.409647824395915         -7.977025340076422
  21 H     1.0000    0     1.008         -9.196767970477234        -18.075891875103647         -8.150086459420930
  22 H     1.0000    0     1.008        -12.132627594875951        -17.549433071454523        -10.093197356625458
  23 H     1.0000    0     1.008        -12.485722922999138        -18.853608665518937         -4.891442714087124
  24 H     1.0000    0     1.008        -11.819084234735737        -15.401400272287574         -4.388662178896036
  25 C     4.0000    0    12.011         26.649900598147131         17.490624794166894          5.842882027993796
  26 C     4.0000    0    12.011         24.598943030479720         16.175772247445828          6.853205208233454
  27 C     4.0000    0    12.011         22.630793262000733         17.763652425995836          7.804625624878787
  28 C     4.0000    0    12.011         23.130172290150764         20.345396270159050          7.544240260885777
  29 S     6.0000    0    32.060         25.941007633529249         20.525052533710944          6.169899135468869
  30 H     1.0000    0     1.008         23.650602867432674         14.236062857282358          6.309719972117703
  31 C     4.0000    0    12.011         19.973611550571384         16.914749652115734          9.056947133828400
  32 C     4.0000    0    12.011         17.731621568025872         16.156308068266437          6.878036209633180
  33 C     4.0000    0    12.011         16.086614968447421         18.741018782459907          5.834642822049900
  34 H     1.0000    0     1.008         17.180558530113093         20.502640381762635          6.485181043652291
  35 H     1.0000    0     1.008         16.256010019092120         18.655981106433451          3.645470684947487
  36 H     1.0000    0     1.008         18.686613567064313         15.208421439491538          5.179002339885922
  37 H     1.0000    0     1.008         16.314308070323595         14.797538286193040          7.805948433172532
  38 H     1.0000    0     1.008         19.156380586695796         18.424924292038899         10.407137559253796
  39 H     1.0000    0     1.008         20.292729602806666         15.090181275292085         10.259020824877048
  40 C     4.0000    0    12.011         13.108028636160745         19.127770133028232          6.540833478296271
  41 C     4.0000    0    12.011         11.297538719034810         18.333121396453006          4.009280760250006
  42 C     4.0000    0    12.011          8.158457946194202         18.145282618741231          4.441801277781901
  43 H     1.0000    0     1.008          7.718586394001353         16.398004040794966          5.683275758722807
  44 H     1.0000    0     1.008          7.183661617272263         17.916228914048638          2.495269976274978
  45 H     1.0000    0     1.008          7.429666165386132         19.955054439936276          5.422947086513815
  46 H     1.0000    0     1.008         12.000497943592178         16.414255685546689          3.260061039934247
  47 H     1.0000    0     1.008         11.639031128695720         19.869449846069642          2.494476291298731
  48 H     1.0000    0     1.008         12.538087234170096         17.861521342471619          8.219118155093074
  49 H     1.0000    0     1.008         12.703532757194900         21.211949086129980          7.041232958558619
  50 H     1.0000    0     1.008        -27.450501972044208        -20.809437419604752         -7.782232370191820
  51 H     1.0000    0     1.008        -22.201126230931056        -23.662470347553700         -1.404671229866345
  52 H     1.0000    0     1.008         28.310591924637126         16.713248154455709          5.036516989388259
  53 H     1.0000    0     1.008         21.957635018575303         21.868723403974311          8.107378648794310

--------------------------------
INTERNAL COORDINATES (ANGSTROEM)
--------------------------------
 C      0   0   0   0.000000     0.000     0.000
 C      1   0   0   1.395669     0.000     0.000
 C      2   1   0   1.429781   114.102     0.000
 C      3   2   1   1.398330   113.693     0.000
 S      1   2   3   1.658037   105.480     0.000
 H      2   1   3   1.138892   122.479   186.334
 C      3   2   1   1.611688   116.043   180.201
 C      7   3   2   1.709060   112.830   313.490
 C      8   7   3   1.692031   114.567   170.141
 H      9   8   7   1.164504   104.535   328.764
 H      9   8   7   1.166872   103.640   217.030
 H      8   7   3   1.152747   107.087   289.770
 H      8   7   3   1.148213   109.801    48.734
 H      7   3   2   1.154329   110.471    74.241
 H      7   3   2   1.166167   110.251   194.287
 C      9   8   7   1.624338   127.010    93.791
 C     16   9   8   1.692879   113.874    98.260
 C     17  16   9   1.688011   112.854    85.153
 H     18  17  16   1.157157   109.318   320.592
 H     18  17  16   1.157128   109.136   200.809
 H     18  17  16   1.156596   109.413    80.731
 H     17  16   9   1.152035   108.094   204.595
 H     17  16   9   1.149697   109.025   323.973
 H     16   9   8   1.155316   109.848   337.270
 H     16   9   8   1.157525   109.163   218.161
 C     21  18  17  25.680290   150.512   183.586
 C     26  21  18   1.395666    40.042   116.471
 C     27  26  21   1.429775   114.102   243.160
 C     28  27  26   1.398328   113.693     0.000
 S     26  21  18   1.658042   118.964    37.102
 H     27  26  21   1.178201   132.225    29.423
 C     28  27  26   1.618068   127.885   178.908
 C     32  28  27   1.702389   113.184   278.812
 C     33  32  28   1.712724   112.599   274.281
 H     34  33  32   1.150060   107.157    13.437
 H     34  33  32   1.162794   104.542   126.670
 H     33  32  28   1.146889   109.086    35.036
 H     33  32  28   1.149186   108.237   155.216
 H     32  28  27   1.155923   112.727   154.904
 H     32  28  27   1.168496   109.073    36.469
 C     34  33  32   1.632772   121.129   248.508
 C     41  34  33   1.699812   109.434   257.772
 C     42  41  34   1.679768   117.686   170.591
 H     43  42  41   1.157886   108.866   289.997
 H     43  42  41   1.158364   108.990   170.786
 H     43  42  41   1.155626   110.011    50.433
 H     42  41  34   1.151800   107.899    47.754
 H     42  41  34   1.155929   106.524   290.466
 H     41  34  33   1.152691   110.858    17.307
 H     41  34  33   1.154264   110.566   138.662
 H      1   2   3   1.059994   127.260   180.001
 H      4   3   2   1.060001   127.206   180.000
 H     26  21  18   1.059998   103.434   249.573
 H     29  28  27   1.060006   127.206   180.000

---------------------------
INTERNAL COORDINATES (A.U.)
---------------------------
 C      0   0   0   0.000000     0.000     0.000
 C      1   0   0   2.637432     0.000     0.000
 C      2   1   0   2.701894   114.102     0.000
 C      3   2   1   2.642461   113.693     0.000
 S      1   2   3   3.133236   105.480     0.000
 H      2   1   3   2.152194   122.479   186.334
 C      3   2   1   3.045648   116.043   180.201
 C      7   3   2   3.229656   112.830   313.490
 C      8   7   3   3.197475   114.567   170.141
 H      9   8   7   2.200594   104.535   328.764
 H      9   8   7   2.205068   103.640   217.030
 H      8   7   3   2.178377   107.087   289.770
 H      8   7   3   2.169809   109.801    48.734
 H      7   3   2   2.181366   110.471    74.241
 H      7   3   2   2.203736   110.251   194.287
 C      9   8   7   3.069554   127.010    93.791
 C     16   9   8   3.199077   113.874    98.260
 C     17  16   9   3.189878   112.854    85.153
 H     18  17  16   2.186711   109.318   320.592
 H     18  17  16   2.186655   109.136   200.809
 H     18  17  16   2.185649   109.413    80.731
 H     17  16   9   2.177030   108.094   204.595
 H     17  16   9   2.172612   109.025   323.973
 H     16   9   8   2.183232   109.848   337.270
 H     16   9   8   2.187405   109.163   218.161
 C     21  18  17  48.528715   150.512   183.586
 C     26  21  18   2.637426    40.042   116.471
 C     27  26  21   2.701884   114.102   243.160
 C     28  27  26   2.642457   113.693     0.000
 S     26  21  18   3.133245   118.964    37.102
 H     27  26  21   2.226477   132.225    29.423
 C     28  27  26   3.057705   127.885   178.908
 C     32  28  27   3.217049   113.184   278.812
 C     33  32  28   3.236579   112.599   274.281
 H     34  33  32   2.173298   107.157    13.437
 H     34  33  32   2.197362   104.542   126.670
 H     33  32  28   2.167306   109.086    35.036
 H     33  32  28   2.171648   108.237   155.216
 H     32  28  27   2.184378   112.727   154.904
 H     32  28  27   2.208137   109.073    36.469
 C     34  33  32   3.085492   121.129   248.508
 C     41  34  33   3.212180   109.434   257.772
 C     42  41  34   3.174301   117.686   170.591
 H     43  42  41   2.188088   108.866   289.997
 H     43  42  41   2.188990   108.990   170.786
 H     43  42  41   2.183817   110.011    50.433
 H     42  41  34   2.176586   107.899    47.754
 H     42  41  34   2.184389   106.524   290.466
 H     41  34  33   2.178270   110.858    17.307
 H     41  34  33   2.181242   110.566   138.662
 H      1   2   3   2.003099   127.260   180.001
 H      4   3   2   2.003111   127.206   180.000
 H     26  21  18   2.003106   103.434   249.573
 H     29  28  27   2.003121   127.206   180.000

----------------------------
SLATER BASIS SET DIM= 120
----------------------------
  0 C     2 shells
 l=0 nsto= 1
    2       1.625000000000        1.000000000000
 l=1 nsto= 1
    2       1.625000000000        1.000000000000
  1 C     2 shells
 l=0 nsto= 1
    2       1.625000000000        1.000000000000
 l=1 nsto= 1
    2       1.625000000000        1.000000000000
  2 C     2 shells
 l=0 nsto= 1
    2       1.625000000000        1.000000000000
 l=1 nsto= 1
    2       1.625000000000        1.000000000000
  3 C     2 shells
 l=0 nsto= 1
    2       1.625000000000        1.000000000000
 l=1 nsto= 1
    2       1.625000000000        1.000000000000
  4 S     2 shells
 l=0 nsto= 1
    3       1.925000000000        1.000000000000
 l=1 nsto= 1
    3       1.925000000000        1.000000000000
  5 H     1 shells
 l=0 nsto= 1
    1       1.200000000000        1.000000000000
  6 C     2 shells
 l=0 nsto= 1
    2       1.625000000000        1.000000000000
 l=1 nsto= 1
    2       1.625000000000        1.000000000000
  7 C     2 shells
 l=0 nsto= 1
    2       1.625000000000        1.000000000000
 l=1 nsto= 1
    2       1.625000000000        1.000000000000
  8 C     2 shells
 l=0 nsto= 1
    2       1.625000000000        1.000000000000
 l=1 nsto= 1
    2       1.625000000000        1.000000000000
  9 H     1 shells
 l=0 nsto= 1
    1       1.200000000000        1.000000000000
 10 H     1 shells
 l=0 nsto= 1
    1       1.200000000000        1.000000000000
 11 H     1 shells
 l=0 nsto= 1
    1       1.200000000000        1.000000000000
 12 H     1 shells
 l=0 nsto= 1
    1       1.200000000000        1.000000000000
 13 H     1 shells
 l=0 nsto= 1
    1       1.200000000000        1.000000000000
 14 H     1 shells
 l=0 nsto= 1
    1       1.200000000000        1.000000000000
 15 C     2 shells
 l=0 nsto= 1
    2       1.625000000000        1.000000000000
 l=1 nsto= 1
    2       1.625000000000        1.000000000000
 16 C     2 shells
 l=0 nsto= 1
    2       1.625000000000        1.000000000000
 l=1 nsto= 1
    2       1.625000000000        1.000000000000
 17 C     2 shells
 l=0 nsto= 1
    2       1.625000000000        1.000000000000
 l=1 nsto= 1
    2       1.625000000000        1.000000000000
 18 H     1 shells
 l=0 nsto= 1
    1       1.200000000000        1.000000000000
 19 H     1 shells
 l=0 nsto= 1
    1       1.200000000000        1.000000000000
 20 H     1 shells
 l=0 nsto= 1
    1       1.200000000000        1.000000000000
 21 H     1 shells
 l=0 nsto= 1
    1       1.200000000000        1.000000000000
 22 H     1 shells
 l=0 nsto= 1
    1       1.200000000000        1.000000000000
 23 H     1 shells
 l=0 nsto= 1
    1       1.200000000000        1.000000000000
 24 H     1 shells
 l=0 nsto= 1
    1       1.200000000000        1.000000000000
 25 C     2 shells
 l=0 nsto= 1
    2       1.625000000000        1.000000000000
 l=1 nsto= 1
    2       1.625000000000        1.000000000000
 26 C     2 shells
 l=0 nsto= 1
    2       1.625000000000        1.000000000000
 l=1 nsto= 1
    2       1.625000000000        1.000000000000
 27 C     2 shells
 l=0 nsto= 1
    2       1.625000000000        1.000000000000
 l=1 nsto= 1
    2       1.625000000000        1.000000000000
 28 C     2 shells
 l=0 nsto= 1
    2       1.625000000000        1.000000000000
 l=1 nsto= 1
    2       1.625000000000        1.000000000000
 29 S     2 shells
 l=0 nsto= 1
    3       1.925000000000        1.000000000000
 l=1 nsto= 1
    3       1.925000000000        1.000000000000
 30 H     1 shells
 l=0 nsto= 1
    1       1.200000000000        1.000000000000
 31 C     2 shells
 l=0 nsto= 1
    2       1.625000000000        1.000000000000
 l=1 nsto= 1
    2       1.625000000000        1.000000000000
 32 C     2 shells
 l=0 nsto= 1
    2       1.625000000000        1.000000000000
 l=1 nsto= 1
    2       1.625000000000        1.000000000000
 33 C     2 shells
 l=0 nsto= 1
    2       1.625000000000        1.000000000000
 l=1 nsto= 1
    2       1.625000000000        1.000000000000
 34 H     1 shells
 l=0 nsto= 1
    1       1.200000000000        1.000000000000
 35 H     1 shells
 l=0 nsto= 1
    1       1.200000000000        1.000000000000
 36 H     1 shells
 l=0 nsto= 1
    1       1.200000000000        1.000000000000
 37 H     1 shells
 l=0 nsto= 1
    1       1.200000000000        1.000000000000
 38 H     1 shells
 l=0 nsto= 1
    1       1.200000000000        1.000000000000
 39 H     1 shells
 l=0 nsto= 1
    1       1.200000000000        1.000000000000
 40 C     2 shells
 l=0 nsto= 1
    2       1.625000000000        1.000000000000
 l=1 nsto= 1
    2       1.625000000000        1.000000000000
 41 C     2 shells
 l=0 nsto= 1
    2       1.625000000000        1.000000000000
 l=1 nsto= 1
    2       1.625000000000        1.000000000000
 42 C     2 shells
 l=0 nsto= 1
    2       1.625000000000        1.000000000000
 l=1 nsto= 1
    2       1.625000000000        1.000000000000
 43 H     1 shells
 l=0 nsto= 1
    1       1.200000000000        1.000000000000
 44 H     1 shells
 l=0 nsto= 1
    1       1.200000000000        1.000000000000
 45 H     1 shells
 l=0 nsto= 1
    1       1.200000000000        1.000000000000
 46 H     1 shells
 l=0 nsto= 1
    1       1.200000000000        1.000000000000
 47 H     1 shells
 l=0 nsto= 1
    1       1.200000000000        1.000000000000
 48 H     1 shells
 l=0 nsto= 1
    1       1.200000000000        1.000000000000
 49 H     1 shells
 l=0 nsto= 1
    1       1.200000000000        1.000000000000
 50 H     1 shells
 l=0 nsto= 1
    1       1.200000000000        1.000000000000
 51 H     1 shells
 l=0 nsto= 1
    1       1.200000000000        1.000000000000
 52 H     1 shells
 l=0 nsto= 1
    1       1.200000000000        1.000000000000
 53 H     1 shells
 l=0 nsto= 1
    1       1.200000000000        1.000000000000
------------------------------------------------------------------------------
                           ORCA NDO INTEGRAL CALCULATION
------------------------------------------------------------------------------

--------------
NDO PARAMETERS
--------------

Gamma integral treatment              ... Mataga-Nishimoto
Nuclear repulsuion treatment          ... Direct (ZA*ZB/RAB)
Interaction factors:
s-s (sigma) =    1.0000
s-p (sigma) =    1.0000
s-d (sigma) =    1.0000
p-p (sigma) =    1.2670  p-p(pi) =    0.5850
p-d (sigma) =    1.0000  p-d(pi) =    1.0000
d-d (sigma) =    1.0000  d-d(pi) =    1.0000 d-d (delta) =    1.0000

fGamma parameter for Mataga-Nishimoto gamma integrals:    1.2000

--------------------------
Parameters for Element H :
--------------------------
 One-electron parameters (in eV)
  U(s)  =   -13.060000 Beta(s) =    12.000000 Neff(s) =     1.000000
 One-center electron repulsion parameters (in eV)
  G(s,s)=    12.850000
--------------------------
Parameters for Element C :
--------------------------
 One-electron parameters (in eV)
  U(s)  =   -50.870766 Beta(s) =    17.000000 Neff(s) =     2.000000
  U(p)  =   -41.599980 Beta(p) =    17.000000 Neff(p) =     2.000000 
 One-center electron repulsion parameters (in eV)
  G(s,s)=    11.110000
  G(s,p)=    11.110000 G(p,p)  =    11.110000
 Slater-Condon parameters (in eV)
 F2(p,p)=     4.5098 G1(s,p)=    6.8977
--------------------------
Parameters for Element S :
--------------------------
 One-electron parameters (in eV)
  U(s)  =   -69.509597 Beta(s) =    15.000000 Neff(s) =     2.000000
  U(p)  =   -60.725746 Beta(p) =    15.000000 Neff(p) =     4.000000 
 One-center electron repulsion parameters (in eV)
  G(s,s)=    10.090000
  G(s,p)=    10.090000 G(p,p)  =    10.090000
 Slater-Condon parameters (in eV)
 F2(p,p)=     4.5377 G1(s,p)=    3.0756

 Number of atoms                    ....   54
 Number of basis functions          ....  120

 Overlap integrals                  .... done
 One electron matrix                .... done
 Nuclear repulsion                  .... done
 Integral list                      .... done
 Electron-electron repulsion        .... done
-------------------------------------------------------------------------------
                                 ORCA SCF
-------------------------------------------------------------------------------

------------
SCF SETTINGS
------------
Hamiltonian:
 ZDO-Hamiltonian        Method          .... INDO


General Settings:
 Integral files         IntName         .... /Users/mattyjones/GoogleDrive/Boise/Code/MorphCT/tests/output_EZ/donor_polymer/chromophores/input_orca/pair/00009-00027
 Hartree-Fock type      HFTyp           .... RHF
 Total Charge           Charge          ....    0
 Multiplicity           Mult            ....    1
 Number of Electrons    NEL             ....  124
 Basis Dimension        Dim             ....  120
 Nuclear Repulsion      ENuc            ....    658.1037157838 Eh

Convergence Acceleration:
 DIIS                   CNVDIIS         .... on
   Start iteration      DIISMaxIt       ....    12
   Startup error        DIISStart       ....  0.200000
   # of expansion vecs  DIISMaxEq       ....     5
   Bias factor          DIISBfac        ....   1.050
   Max. coefficient     DIISMaxC        ....  10.000
 Newton-Raphson         CNVNR           .... off
 SOSCF                  CNVSOSCF        .... on
   Start iteration      SOSCFMaxIt      ....   150
   Startup grad/error   SOSCFStart      ....  0.003300
 Level Shifting         CNVShift        .... on
   Level shift para.    LevelShift      ....    0.2500
   Turn off err/grad.   ShiftErr        ....    0.0010
 Zerner damping         CNVZerner       .... off
 Static damping         CNVDamp         .... on
   Fraction old density DampFac         ....    0.7000
   Max. Damping (<1)    DampMax         ....    0.9800
   Min. Damping (>=0)   DampMin         ....    0.0000
   Turn off err/grad.   DampErr         ....    0.1000
 Fernandez-Rico         CNVRico         .... off

SCF Procedure:
 Maximum # iterations   MaxIter         ....   125
 SCF integral mode      SCFMode         .... Conventional
 Integral Buffer length BufferLength    .... 1048576
 Integral index format  IndFormat       ....     0
 Integral value format  ValFormat       ....     0
 Integral Storage       Thresh          ....  1.000e-08 Eh

Convergence Tolerance:
 Convergence Check Mode ConvCheckMode   .... Total+1el-Energy
 Energy Change          TolE            ....  1.000e-06 Eh
 1-El. energy change                    ....  1.000e-03 Eh
 Orbital Gradient       TolG            ....  5.000e-05
 Orbital Rotation angle TolX            ....  5.000e-05
 DIIS Error             TolErr          ....  1.000e-06


Diagonalization of the overlap matrix:
Smallest eigenvalue                        ... 1.694e-01
Time for diagonalization                   ...    0.003 sec
Threshold for overlap eigenvalues          ... 1.000e-08
Number of eigenvalues below threshold      ... 0
Time for construction of square roots      ...    0.001 sec
Total time needed                          ...    0.004 sec

-------------------------------
INITIAL GUESS: EXTENDED HUECKEL
-------------------------------
EHT matrix was read from disk
EHT matrix was diagonalized
Initial density was built
                      ------------------
                      INITIAL GUESS DONE
                      ------------------

 InCore treatment chosen:
   Memory dedicated               ...    1024 MB
   Memory needed                  ...      0 MB
   Number of tiny    integrals    ...       0
   Number of small   integrals    ...       0
   Number of regular integrals    ...    7392

--------------
SCF ITERATIONS
--------------
ITER       Energy         Delta-E        Max-DP      RMS-DP      [F,P]     Damp
  0    -23.9308590025   0.000000000000 0.04577340  0.00146224  0.1116819 0.7000
  1    -23.9732884188  -0.042429416253 0.04441591  0.00137833  0.0759354 0.7000
                               ***Turning on DIIS***
  2    -24.0046600613  -0.031371642510 0.11632451  0.00353759  0.0454650 0.0000
  3    -24.0864642324  -0.081804171122 0.01999535  0.00073241  0.0225146 0.0000
  4    -24.0712866076   0.015177624831 0.01426890  0.00050627  0.0077498 0.0000
  5    -24.0889145642  -0.017627956619 0.00995505  0.00034354  0.0046793 0.0000
  6    -24.0910074708  -0.002092906622 0.00710981  0.00024511  0.0026904 0.0000
                      *** Initiating the SOSCF procedure ***
                           *** Shutting down DIIS ***
                      *** Re-Reading the Fockian *** 
                      *** Removing any level shift *** 
ITER      Energy       Delta-E        Grad      Rot      Max-DP    RMS-DP
  7    -24.08713443   0.0038730403  0.003107  0.003107  0.004338  0.000139
  8    -24.08505131   0.0020831218  0.000874  0.002448  0.002219  0.000065
  9    -24.08506724  -0.0000159350  0.000384  0.002419  0.002563  0.000071
 10    -24.08507325  -0.0000060071  0.000035  0.000080  0.000118  0.000004
                 **** Energy Check signals convergence ****
              ***Rediagonalizing the Fockian in SOSCF/NRSCF***

               *****************************************************
               *                     SUCCESS                       *
               *           SCF CONVERGED AFTER  11 CYCLES          *
               *****************************************************


----------------
TOTAL SCF ENERGY
----------------

Total Energy       :          -24.08507331 Eh            -655.38816 eV

Components:
Nuclear Repulsion  :          658.10371578 Eh           17907.91253 eV
Electronic Energy  :         -682.18878909 Eh          -18563.30069 eV

One Electron Energy:        -1273.97179737 Eh          -34666.53502 eV
Two Electron Energy:          591.78300828 Eh           16103.23433 eV


---------------
SCF CONVERGENCE
---------------

  Last Energy change         ...   -5.7154e-08  Tolerance :   1.0000e-06
  Last MAX-Density change    ...    7.6622e-05  Tolerance :   1.0000e-05
  Last RMS-Density change    ...    1.5917e-06  Tolerance :   1.0000e-06
  Last Orbital Gradient      ...    1.2036e-05  Tolerance :   5.0000e-05
  Last Orbital Rotation      ...    3.0334e-05  Tolerance :   5.0000e-05

             **** THE GBW FILE WAS UPDATED (/Users/mattyjones/GoogleDrive/Boise/Code/MorphCT/tests/output_EZ/donor_polymer/chromophores/input_orca/pair/00009-00027.gbw) ****
             **** DENSITY FILE WAS UPDATED (/Users/mattyjones/GoogleDrive/Boise/Code/MorphCT/tests/output_EZ/donor_polymer/chromophores/input_orca/pair/00009-00027.scfp.tmp) ****
             **** ENERGY FILE WAS UPDATED (/Users/mattyjones/GoogleDrive/Boise/Code/MorphCT/tests/output_EZ/donor_polymer/chromophores/input_orca/pair/00009-00027.en.tmp) ****
----------------
ORBITAL ENERGIES
----------------

  NO   OCC          E(Eh)            E(eV) 
   0   2.0000      -1.559971       -42.4490 
   1   2.0000      -1.559845       -42.4455 
   2   2.0000      -1.400581       -38.1118 
   3   2.0000      -1.397986       -38.0411 
   4   2.0000      -1.298015       -35.3208 
   5   2.0000      -1.294827       -35.2340 
   6   2.0000      -1.177762       -32.0485 
   7   2.0000      -1.172088       -31.8941 
   8   2.0000      -1.119434       -30.4613 
   9   2.0000      -1.107731       -30.1429 
  10   2.0000      -1.037161       -28.2226 
  11   2.0000      -1.036407       -28.2021 
  12   2.0000      -0.951824       -25.9004 
  13   2.0000      -0.949770       -25.8446 
  14   2.0000      -0.923213       -25.1219 
  15   2.0000      -0.907187       -24.6858 
  16   2.0000      -0.874860       -23.8061 
  17   2.0000      -0.842824       -22.9344 
  18   2.0000      -0.835383       -22.7319 
  19   2.0000      -0.815686       -22.1959 
  20   2.0000      -0.776037       -21.1170 
  21   2.0000      -0.769953       -20.9515 
  22   2.0000      -0.739988       -20.1361 
  23   2.0000      -0.734899       -19.9976 
  24   2.0000      -0.701079       -19.0773 
  25   2.0000      -0.695289       -18.9198 
  26   2.0000      -0.671790       -18.2803 
  27   2.0000      -0.665043       -18.0967 
  28   2.0000      -0.644081       -17.5263 
  29   2.0000      -0.640568       -17.4307 
  30   2.0000      -0.622121       -16.9288 
  31   2.0000      -0.618083       -16.8189 
  32   2.0000      -0.583556       -15.8794 
  33   2.0000      -0.581399       -15.8207 
  34   2.0000      -0.580660       -15.8006 
  35   2.0000      -0.575390       -15.6572 
  36   2.0000      -0.575240       -15.6531 
  37   2.0000      -0.565911       -15.3992 
  38   2.0000      -0.561669       -15.2838 
  39   2.0000      -0.554139       -15.0789 
  40   2.0000      -0.531407       -14.4603 
  41   2.0000      -0.528349       -14.3771 
  42   2.0000      -0.521384       -14.1876 
  43   2.0000      -0.519585       -14.1386 
  44   2.0000      -0.507193       -13.8014 
  45   2.0000      -0.505685       -13.7604 
  46   2.0000      -0.497794       -13.5457 
  47   2.0000      -0.493608       -13.4318 
  48   2.0000      -0.491158       -13.3651 
  49   2.0000      -0.488723       -13.2988 
  50   2.0000      -0.485541       -13.2122 
  51   2.0000      -0.476096       -12.9552 
  52   2.0000      -0.467247       -12.7144 
  53   2.0000      -0.461372       -12.5546 
  54   2.0000      -0.460534       -12.5318 
  55   2.0000      -0.459320       -12.4987 
  56   2.0000      -0.437220       -11.8974 
  57   2.0000      -0.434909       -11.8345 
  58   2.0000      -0.355288        -9.6679 
  59   2.0000      -0.352377        -9.5887 
  60   2.0000      -0.305076        -8.3015 
  61   2.0000      -0.303606        -8.2615 
  62   0.0000       0.004844         0.1318 
  63   0.0000       0.008230         0.2240 
  64   0.0000       0.062398         1.6979 
  65   0.0000       0.070985         1.9316 
  66   0.0000       0.075339         2.0501 
  67   0.0000       0.078263         2.1297 
  68   0.0000       0.088980         2.4213 
  69   0.0000       0.090701         2.4681 
  70   0.0000       0.102982         2.8023 
  71   0.0000       0.103634         2.8200 
  72   0.0000       0.107941         2.9372 
  73   0.0000       0.109053         2.9675 
  74   0.0000       0.122699         3.3388 
  75   0.0000       0.126025         3.4293 
  76   0.0000       0.139568         3.7979 
  77   0.0000       0.143349         3.9007 
  78   0.0000       0.156180         4.2499 
  79   0.0000       0.157134         4.2758 
  80   0.0000       0.165554         4.5049 
  81   0.0000       0.168839         4.5943 
  82   0.0000       0.170954         4.6519 
  83   0.0000       0.172260         4.6874 
  84   0.0000       0.196903         5.3580 
  85   0.0000       0.203851         5.5471 
  86   0.0000       0.233829         6.3628 
  87   0.0000       0.234620         6.3843 
  88   0.0000       0.235890         6.4189 
  89   0.0000       0.237378         6.4594 
  90   0.0000       0.237533         6.4636 
  91   0.0000       0.238580         6.4921 
  92   0.0000       0.238848         6.4994 
  93   0.0000       0.239401         6.5144 
  94   0.0000       0.240788         6.5522 
  95   0.0000       0.240970         6.5571 
  96   0.0000       0.242121         6.5884 
  97   0.0000       0.242486         6.5984 
  98   0.0000       0.245492         6.6802 
  99   0.0000       0.245902         6.6913 
 100   0.0000       0.247270         6.7286 
 101   0.0000       0.254858         6.9350 
 102   0.0000       0.261791         7.1237 
 103   0.0000       0.265371         7.2211 
 104   0.0000       0.266673         7.2565 
 105   0.0000       0.267235         7.2718 
 106   0.0000       0.277840         7.5604 
 107   0.0000       0.278629         7.5819 
 108   0.0000       0.302458         8.2303 
 109   0.0000       0.305375         8.3097 
 110   0.0000       0.310266         8.4428 
 111   0.0000       0.310424         8.4471 
 112   0.0000       0.340497         9.2654 
 113   0.0000       0.340908         9.2766 
 114   0.0000       0.350332         9.5330 
 115   0.0000       0.354901         9.6573 
 116   0.0000       0.404785        11.0148 
 117   0.0000       0.419490        11.4149 
 118   0.0000       0.425591        11.5809 
 119   0.0000       0.433435        11.7944 
-------
TIMINGS
-------

Total SCF time: 0 days 0 hours 0 min 0 sec 

Total time                  ....       0.153 sec
Sum of individual times     ....       0.124 sec  ( 80.9%)

Fock matrix formation       ....       0.053 sec  ( 34.5%)
Diagonalization             ....       0.027 sec  ( 17.4%)
Density matrix formation    ....       0.005 sec  (  3.5%)
Population analysis         ....       0.000 sec  (  0.0%)
Initial guess               ....       0.003 sec  (  1.9%)
Orbital Transformation      ....       0.000 sec  (  0.0%)
Orbital Orthonormalization  ....       0.000 sec  (  0.0%)
DIIS solution               ....       0.031 sec  ( 20.0%)
SOSCF solution              ....       0.005 sec  (  3.6%)

-------------------------   --------------------
FINAL SINGLE POINT ENERGY       -24.085073307903
-------------------------   --------------------


                            ***************************************
                            *     ORCA property calculations      *
                            ***************************************

                                    ---------------------
                                    Active property flags
                                    ---------------------
   (+) Dipole Moment


------------------------------------------------------------------------------
                       ORCA ELECTRIC PROPERTIES CALCULATION
------------------------------------------------------------------------------

Dipole Moment Calculation                       ... on
Quadrupole Moment Calculation                   ... off
Polarizability Calculation                      ... off
GBWName                                         ... /Users/mattyjones/GoogleDrive/Boise/Code/MorphCT/tests/output_EZ/donor_polymer/chromophores/input_orca/pair/00009-00027.gbw
Electron density file                           ... /Users/mattyjones/GoogleDrive/Boise/Code/MorphCT/tests/output_EZ/donor_polymer/chromophores/input_orca/pair/00009-00027.scfp.tmp

-------------
DIPOLE MOMENT
-------------
                                X             Y             Z
Electronic contribution:      6.71708     -42.85751      32.57129
Nuclear contribution   :     -2.46653      24.39218     -17.66327
                        -----------------------------------------
Total Dipole Moment    :      4.25055     -18.46533      14.90802
                        -----------------------------------------
Magnitude (a.u.)       :     24.10984
Magnitude (Debye)      :     61.28235


Timings for individual modules:

Sum of individual times         ...        0.228 sec (=   0.004 min)
STO integral calculation        ...        0.039 sec (=   0.001 min)  17.2 %
SCF iterations                  ...        0.189 sec (=   0.003 min)  82.8 %
                             ****ORCA TERMINATED NORMALLY****
TOTAL RUN TIME: 0 days 0 hours 0 minutes 0 seconds 593 msec

