
                                 *****************
                                 * O   R   C   A *
                                 *****************

           --- An Ab Initio, DFT and Semiempirical electronic structure package ---

                  #######################################################
                  #                        -***-                        #
                  #  Department of molecular theory and spectroscopy    #
                  #              Directorship: Frank Neese              #
                  # Max Planck Institute for Chemical Energy Conversion #
                  #                  D-45470 Muelheim/Ruhr              #
                  #                       Germany                       #
                  #                                                     #
                  #                  All rights reserved                #
                  #                        -***-                        #
                  #######################################################


                         Program Version 3.0.3 - RELEASE   -


 With contributions from (in alphabetic order):
   Ute Becker             : Parallelization
   Dmytro Bykov           : SCF Hessian
   Dmitry Ganyushin       : Spin-Orbit,Spin-Spin,Magnetic field MRCI
   Andreas Hansen         : Spin unrestricted coupled pair/coupled cluster methods
   Dimitrios Liakos       : Extrapolation schemes; parallel MDCI
   Robert Izsak           : Overlap fitted RIJCOSX, COSX-SCS-MP3
   Christian Kollmar      : KDIIS, OOCD, Brueckner-CCSD(T), CCSD density
   Simone Kossmann        : Meta GGA functionals, TD-DFT gradient, OOMP2, MP2 Hessian
   Taras Petrenko         : DFT Hessian,TD-DFT gradient, ASA and ECA modules, normal mode analysis, Resonance Raman, ABS, FL, XAS/XES, NRVS
   Christoph Reimann      : Effective Core Potentials
   Michael Roemelt        : Restricted open shell CIS
   Christoph Riplinger    : Improved optimizer, TS searches, QM/MM, DLPNO-CCSD
   Barbara Sandhoefer     : DKH picture change effects
   Igor Schapiro          : Molecular dynamics
   Kantharuban Sivalingam : CASSCF convergence, NEVPT2
   Boris Wezisla          : Elementary symmetry handling
   Frank Wennmohs         : Technical directorship


 We gratefully acknowledge several colleagues who have allowed us to
 interface, adapt or use parts of their codes:
   Stefan Grimme, W. Hujo, H. Kruse, T. Risthaus : VdW corrections, initial TS optimization,
                                                   DFT functionals, gCP
   Ed Valeev                                     : LibInt (2-el integral package), F12 methods
   Garnet Chan, S. Sharma, R. Olivares           : DMRG
   Ulf Ekstrom                                   : XCFun DFT Library
   Mihaly Kallay                                 : mrcc  (arbitrary order and MRCC methods)
   Andreas Klamt, Michael Diedenhofen            : otool_cosmo (COSMO solvation model)
   Frank Weinhold                                : gennbo (NPA and NBO analysis)
   Christopher J. Cramer and Donald G. Truhlar   : smd solvation model


 Your calculation uses the libint2 library for the computation of 2-el integrals
 For citations please refer to: http://libint.valeyev.net

 This ORCA versions uses:
   CBLAS   interface :  Fast vector & matrix operations
   LAPACKE interface :  Fast linear algebra routines
   SCALAPACK package :  Parallel linear algebra routines


leaving
================================================================================
                                        WARNINGS
                       Please study these warnings very carefully!
================================================================================
Now building the actual basis set

WARNING: Direct SCF is incompatible with Method<>HF and Method<>DFT
  ===> : conventional SCF is chosen

WARNING: The NDO methods need Guess=HUECKEL or Guess=HCORE or Guess=MOREAD
  ===> : Guess is set to Hueckel

WARNING: The NDO methods need %rel::SOCType==1
  ===> : %rel::SOCType is set to 1

WARNING: The NDO methods cannot have frozencore=1
  ===> : %method FrozenCore=0 end


INFO   : the flag for use of LIBINT has been found!

================================================================================
                                       INPUT FILE
================================================================================
NAME = /Users/mattyjones/GoogleDrive/Boise/Code/MorphCT/tests/output_EZ/donor_polymer/chromophores/input_orca/pair/00001-00009.inp
|  1> # ================================================================
|  2> # Orca input file made by Matty Jones
|  3> # ================================================================
|  4> ! ZINDO/S 
|  5> ! NOPOP
|  6> ! NOMOPRINT
|  7> * xyz 0   1
|  8>  C  -12.40234  -33.45962  -11.72062
|  9>  C  -11.25573  -32.71207  -11.44796
| 10>  C  -10.31524  -33.37431  -10.59873
| 11>  C  -10.72128  -34.65122  -10.19879
| 12>  S  -12.20172  -34.89030  -10.90700
| 13>  H  -11.07326  -31.66235  -11.86259
| 14>  C  -8.90848  -32.64253  -10.19717
| 15>  C  -8.13225  -32.55004  -8.65130
| 16>  C  -6.55264  -31.82700  -8.57486
| 17>  H  -6.09619  -32.09936  -9.60727
| 18>  H  -6.02029  -32.47985  -7.77182
| 19>  H  -8.03200  -33.61242  -8.24372
| 20>  H  -8.81077  -31.91966  -7.97228
| 21>  H  -8.07747  -33.11765  -10.86975
| 22>  H  -8.99708  -31.51933  -10.50243
| 23>  C  -6.07321  -30.28686  -8.26309
| 24>  C  -5.44825  -29.85015  -6.73658
| 25>  C  -3.77057  -29.95933  -6.53874
| 26>  H  -3.42079  -31.02785  -6.80817
| 27>  H  -3.50412  -29.72960  -5.43572
| 28>  H  -3.24924  -29.19073  -7.22859
| 29>  H  -5.73823  -28.75003  -6.54910
| 30>  H  -5.94166  -30.52168  -5.94377
| 31>  H  -6.97813  -29.58835  -8.44458
| 32>  H  -5.24230  -30.01268  -9.02359
| 33>  C  3.10355  30.18396  8.85785
| 34>  C  4.26365  30.94304  9.01865
| 35>  C  5.12505  30.47920  10.06129
| 36>  C  4.64270  29.34814  10.72715
| 37>  S  3.19617  28.98660  10.00103
| 38>  H  4.44645  31.90970  8.44485
| 39>  C  6.47726  31.32557  10.29101
| 40>  C  7.29702  31.67445  8.83252
| 41>  C  8.57201  32.77584  8.98828
| 42>  H  8.24682  33.47824  9.85832
| 43>  H  8.51375  33.40479  8.00715
| 44>  H  7.73239  30.68083  8.44265
| 45>  H  6.55836  32.10015  8.06339
| 46>  H  6.24227  32.32826  10.81241
| 47>  H  7.22116  30.72457  10.95836
| 48>  C  10.14173  32.42810  9.21963
| 49>  C  11.06736  32.46335  7.80266
| 50>  C  11.61744  34.01200  7.41729
| 51>  H  10.78330  34.78166  7.64281
| 52>  H  11.88540  34.05030  6.29226
| 53>  H  12.55418  34.25582  8.05034
| 54>  H  11.98647  31.78654  7.95876
| 55>  H  10.43288  32.06514  6.93052
| 56>  H  10.24602  31.37499  9.68316
| 57>  H  10.59880  33.20182  9.94922
| 58>  H  -13.22746  -33.17313  -12.32121
| 59>  H  -10.19337  -35.32525  -9.57381
| 60>  H  2.32700  30.34002  8.15342
| 61>  H  5.10486  28.83025  11.52828
| 62> *
| 63> 
| 64>                          ****END OF INPUT****
================================================================================

                       ****************************
                       * Single Point Calculation *
                       ****************************

---------------------------------
CARTESIAN COORDINATES (ANGSTROEM)
---------------------------------
  C    -12.402340  -33.459620  -11.720620
  C    -11.255730  -32.712070  -11.447960
  C    -10.315240  -33.374310  -10.598730
  C    -10.721280  -34.651220  -10.198790
  S    -12.201720  -34.890300  -10.907000
  H    -11.073260  -31.662350  -11.862590
  C     -8.908480  -32.642530  -10.197170
  C     -8.132250  -32.550040   -8.651300
  C     -6.552640  -31.827000   -8.574860
  H     -6.096190  -32.099360   -9.607270
  H     -6.020290  -32.479850   -7.771820
  H     -8.032000  -33.612420   -8.243720
  H     -8.810770  -31.919660   -7.972280
  H     -8.077470  -33.117650  -10.869750
  H     -8.997080  -31.519330  -10.502430
  C     -6.073210  -30.286860   -8.263090
  C     -5.448250  -29.850150   -6.736580
  C     -3.770570  -29.959330   -6.538740
  H     -3.420790  -31.027850   -6.808170
  H     -3.504120  -29.729600   -5.435720
  H     -3.249240  -29.190730   -7.228590
  H     -5.738230  -28.750030   -6.549100
  H     -5.941660  -30.521680   -5.943770
  H     -6.978130  -29.588350   -8.444580
  H     -5.242300  -30.012680   -9.023590
  C      3.103550   30.183960    8.857850
  C      4.263650   30.943040    9.018650
  C      5.125050   30.479200   10.061290
  C      4.642700   29.348140   10.727150
  S      3.196170   28.986600   10.001030
  H      4.446450   31.909700    8.444850
  C      6.477260   31.325570   10.291010
  C      7.297020   31.674450    8.832520
  C      8.572010   32.775840    8.988280
  H      8.246820   33.478240    9.858320
  H      8.513750   33.404790    8.007150
  H      7.732390   30.680830    8.442650
  H      6.558360   32.100150    8.063390
  H      6.242270   32.328260   10.812410
  H      7.221160   30.724570   10.958360
  C     10.141730   32.428100    9.219630
  C     11.067360   32.463350    7.802660
  C     11.617440   34.012000    7.417290
  H     10.783300   34.781660    7.642810
  H     11.885400   34.050300    6.292260
  H     12.554180   34.255820    8.050340
  H     11.986470   31.786540    7.958760
  H     10.432880   32.065140    6.930520
  H     10.246020   31.374990    9.683160
  H     10.598800   33.201820    9.949220
  H    -13.227460  -33.173130  -12.321210
  H    -10.193370  -35.325250   -9.573810
  H      2.327000   30.340020    8.153420
  H      5.104860   28.830250   11.528280

----------------------------
CARTESIAN COORDINATES (A.U.)
----------------------------
  NO LB      ZA    FRAG    MASS        X           Y           Z
   0 C     4.0000    0    12.011        -23.437026019776898        -63.229518345074190        -22.148761919760101
   1 C     4.0000    0    12.011        -21.270247137361448        -61.816853573661355        -21.633509192085132
   2 C     4.0000    0    12.011        -19.492978605669851        -63.068305808589372        -20.028697067375187
   3 C     4.0000    0    12.011        -20.260283005087238        -65.481316006254758        -19.272919997374725
   4 S     6.0000    0    32.060        -23.057909162789613        -65.933111730352650        -20.611242942679091
   5 H     1.0000    0     1.008        -20.925428809704837        -59.833170256361541        -22.417046338992904
   6 C     4.0000    0    12.011        -16.834587469514794        -61.685442018308478        -19.269858641037768
   7 C     4.0000    0    12.011        -15.367725352581100        -61.510661248182103        -16.348587702392926
   8 C     4.0000    0    12.011        -12.382695054177750        -60.144313664311682        -16.204137036715984
   9 H     1.0000    0     1.008        -11.520129560349394        -60.658999474146462        -18.155109194637625
  10 H     1.0000    0     1.008        -11.376699346784772        -61.378021370842163        -14.686611362131861
  11 H     1.0000    0     1.008        -15.178280307655493        -63.518268498337356        -15.578373124729300
  12 H     1.0000    0     1.008        -16.649942328969345        -60.319415687880820        -15.065425862937715
  13 H     1.0000    0     1.008        -15.264206154964892        -62.583288699057135        -20.540850644190524
  14 H     1.0000    0     1.008        -17.002017204980216        -59.562901624688124        -19.846716440678573
  15 C     4.0000    0    12.011        -11.476703653791885        -57.233870856414200        -15.614977119943356
  16 C     4.0000    0    12.011        -10.295700409136460        -56.408608556469446        -12.730291279251226
  17 C     4.0000    0    12.011         -7.125344668779454        -56.614928855770977        -12.356427860916245
  18 H     1.0000    0     1.008         -6.464356261656479        -58.634139024388510        -12.865576773178647
  19 H     1.0000    0     1.008         -6.621827140396136        -56.180802071025248        -10.272022140678425
  20 H     1.0000    0     1.008         -6.140173743382287        -55.162485349239098        -13.660055434401819
  21 H     1.0000    0     1.008        -10.843683193450943        -54.329683042020001        -12.376005423663669
  22 H     1.0000    0     1.008        -11.228110180874543        -57.677616347181591        -11.232097503017117
  23 H     1.0000    0     1.008        -13.186754626899905        -55.913878254608861        -15.957943515988724
  24 H     1.0000    0     1.008         -9.906511311855377        -56.715745745015667        -17.052113844790469
  25 C     4.0000    0    12.011          5.864859542931300         57.039418037233702         16.738910635354358
  26 C     4.0000    0    12.011          8.057130830893344         58.473871350970647         17.042778597688894
  27 C     4.0000    0    12.011          9.684940922653110         57.597340781012612         19.013082653960549
  28 C     4.0000    0    12.011          8.773431521956194         55.459947139979647         20.271375697493355
  29 S     6.0000    0    32.060          6.039885977455087         54.776735553521753         18.899207757130455
  30 H     1.0000    0     1.008          8.402572768174149         60.300594015586967         15.958453742044883
  31 C     4.0000    0    12.011         12.240247498202766         59.196748288979542         19.447190541444940
  32 C     4.0000    0    12.011         13.789369393746052         59.856035942581990         16.691043872382135
  33 C     4.0000    0    12.011         16.198751317234308         61.937361409221523         16.985387615001706
  34 H     1.0000    0     1.008         15.584231275744456         63.264705045687805         18.629524940558554
  35 H     1.0000    0     1.008         16.088655872672057         63.125904661151289         15.131320613227549
  36 H     1.0000    0     1.008         14.612099460671347         57.978366261395159         15.954296344550256
  37 H     1.0000    0     1.008         12.393504287663781         60.660492357792265         15.237598810999282
  38 H     1.0000    0     1.008         11.796180753992612         61.091557786201044         20.432493747671479
  39 H     1.0000    0     1.008         13.646014769226786         58.061022882492871         20.708299276917288
  40 C     4.0000    0    12.011         19.165092224173176         61.280228043411739         17.422575756084392
  41 C     4.0000    0    12.011         20.914279425514707         61.346840889632460         14.744890516101995
  42 C     4.0000    0    12.011         21.953779977262105         64.273365266929616         14.016646755872761
  43 H     1.0000    0     1.008         20.377483819913035         65.727811883163440         14.442817793594681
  44 H     1.0000    0     1.008         22.460150992107646         64.345741777858791         11.890648163427334
  45 H     1.0000    0     1.008         23.723962035951502         64.734118292902295         15.212937884951609
  46 H     1.0000    0     1.008         22.651145612463068         60.067855344933221         15.039876765607101
  47 H     1.0000    0     1.008         19.715285988064348         60.594333045843683         13.096784765663912
  48 H     1.0000    0     1.008         19.362171762679822         59.290138554517931         18.298520510940907
  49 H     1.0000    0     1.008         20.028829348204564         62.742346947749290         18.801301046131996
  50 H     1.0000    0     1.008        -24.996276847398001        -62.688130704967094        -23.283712538531866
  51 H     1.0000    0     1.008        -19.262677681728867        -66.755048112301694        -18.091878958196617
  52 H     1.0000    0     1.008          4.397392713634752         57.334328697693451         15.407730854836213
  53 H     1.0000    0     1.008          9.646787352009241         54.481276872483164         21.785291995161689

--------------------------------
INTERNAL COORDINATES (ANGSTROEM)
--------------------------------
 C      0   0   0   0.000000     0.000     0.000
 C      1   0   0   1.395668     0.000     0.000
 C      2   1   0   1.429781   114.101     0.000
 C      3   2   1   1.398327   113.693     0.000
 S      1   2   3   1.658032   105.480     0.000
 H      2   1   3   1.143296   123.508   179.928
 C      3   2   1   1.635765   120.285   179.222
 C      7   3   2   1.732282   128.926   135.995
 C      8   7   3   1.738907   117.935   174.106
 H      9   8   7   1.161205   102.736   328.287
 H      9   8   7   1.163823   102.275   216.810
 H      8   7   3   1.142288   107.944    52.887
 H      8   7   3   1.148406   106.990   293.864
 H      7   3   2   1.169906   106.742   258.235
 H      7   3   2   1.167310   107.517    12.897
 C      9   8   7   1.642889   131.546    93.421
 C     16   9   8   1.706319   121.103   102.238
 C     17  16   9   1.692829   116.810    91.344
 H     18  17  16   1.156146   109.403   305.100
 H     18  17  16   1.157767   109.064   185.207
 H     18  17  16   1.156903   109.515    65.486
 H     17  16   9   1.153040   107.310   211.339
 H     17  16   9   1.150197   108.065   329.571
 H     16   9   8   1.157469   107.929   340.281
 H     16   9   8   1.159287   107.842   223.429
 C     22  17  16  61.552956   156.647   228.972
 C     26  22  17   1.395669   131.988    14.248
 C     27  26  22   1.429775   114.102   297.637
 C     28  27  26   1.398330   113.693     0.000
 S     26  22  17   1.658044    59.281   290.973
 H     27  26  22   1.138900   122.479   123.971
 C     28  27  26   1.611703   116.043   180.201
 C     32  28  27   1.709069   112.830   313.490
 C     33  32  28   1.692017   114.567   170.141
 H     34  33  32   1.164510   104.535   328.764
 H     34  33  32   1.166871   103.641   217.030
 H     33  32  28   1.152747   107.087   289.770
 H     33  32  28   1.148216   109.801    48.734
 H     32  28  27   1.154325   110.471    74.241
 H     32  28  27   1.166166   110.250   194.288
 C     34  33  32   1.624336   127.010    93.791
 C     41  34  33   1.692878   113.874    98.259
 C     42  41  34   1.688021   112.853    85.154
 H     43  42  41   1.157163   109.318   320.591
 H     43  42  41   1.157135   109.135   200.810
 H     43  42  41   1.156582   109.413    80.731
 H     42  41  34   1.152043   108.094   204.595
 H     42  41  34   1.149680   109.026   323.973
 H     41  34  33   1.155326   109.848   337.270
 H     41  34  33   1.157522   109.164   218.161
 H      1   2   3   1.060004   127.260   180.000
 H      4   3   2   1.060003   127.206   180.001
 H     26  22  17   1.060003    82.495   148.917
 H     29  28  27   1.060005   127.206   180.000

---------------------------
INTERNAL COORDINATES (A.U.)
---------------------------
 C      0   0   0   0.000000     0.000     0.000
 C      1   0   0   2.637430     0.000     0.000
 C      2   1   0   2.701895   114.101     0.000
 C      3   2   1   2.642456   113.693     0.000
 S      1   2   3   3.133227   105.480     0.000
 H      2   1   3   2.160516   123.508   179.928
 C      3   2   1   3.091147   120.285   179.222
 C      7   3   2   3.273539   128.926   135.995
 C      8   7   3   3.286058   117.935   174.106
 H      9   8   7   2.194359   102.736   328.287
 H      9   8   7   2.199306   102.275   216.810
 H      8   7   3   2.158612   107.944    52.887
 H      8   7   3   2.170173   106.990   293.864
 H      7   3   2   2.210802   106.742   258.235
 H      7   3   2   2.205896   107.517    12.897
 C      9   8   7   3.104611   131.546    93.421
 C     16   9   8   3.224475   121.103   102.238
 C     17  16   9   3.198984   116.810    91.344
 H     18  17  16   2.184799   109.403   305.100
 H     18  17  16   2.187863   109.064   185.207
 H     18  17  16   2.186229   109.515    65.486
 H     17  16   9   2.178930   107.310   211.339
 H     17  16   9   2.173558   108.065   329.571
 H     16   9   8   2.187300   107.929   340.281
 H     16   9   8   2.190735   107.842   223.429
 C     22  17  16 116.318229   156.647   228.972
 C     26  22  17   2.637432   131.988    14.248
 C     27  26  22   2.701883   114.102   297.637
 C     28  27  26   2.642461   113.693     0.000
 S     26  22  17   3.133249    59.281   290.973
 H     27  26  22   2.152210   122.479   123.971
 C     28  27  26   3.045677   116.043   180.201
 C     32  28  27   3.229672   112.830   313.490
 C     33  32  28   3.197448   114.567   170.141
 H     34  33  32   2.200605   104.535   328.764
 H     34  33  32   2.205067   103.641   217.030
 H     33  32  28   2.178377   107.087   289.770
 H     33  32  28   2.169814   109.801    48.734
 H     32  28  27   2.181358   110.471    74.241
 H     32  28  27   2.203735   110.250   194.288
 C     34  33  32   3.069550   127.010    93.791
 C     41  34  33   3.199077   113.874    98.259
 C     42  41  34   3.189897   112.853    85.154
 H     43  42  41   2.186720   109.318   320.591
 H     43  42  41   2.186669   109.135   200.810
 H     43  42  41   2.185624   109.413    80.731
 H     42  41  34   2.177045   108.094   204.595
 H     42  41  34   2.172580   109.026   323.973
 H     41  34  33   2.183249   109.848   337.270
 H     41  34  33   2.187400   109.164   218.161
 H      1   2   3   2.003117   127.260   180.000
 H      4   3   2   2.003115   127.206   180.001
 H     26  22  17   2.003115    82.495   148.917
 H     29  28  27   2.003120   127.206   180.000

----------------------------
SLATER BASIS SET DIM= 120
----------------------------
  0 C     2 shells
 l=0 nsto= 1
    2       1.625000000000        1.000000000000
 l=1 nsto= 1
    2       1.625000000000        1.000000000000
  1 C     2 shells
 l=0 nsto= 1
    2       1.625000000000        1.000000000000
 l=1 nsto= 1
    2       1.625000000000        1.000000000000
  2 C     2 shells
 l=0 nsto= 1
    2       1.625000000000        1.000000000000
 l=1 nsto= 1
    2       1.625000000000        1.000000000000
  3 C     2 shells
 l=0 nsto= 1
    2       1.625000000000        1.000000000000
 l=1 nsto= 1
    2       1.625000000000        1.000000000000
  4 S     2 shells
 l=0 nsto= 1
    3       1.925000000000        1.000000000000
 l=1 nsto= 1
    3       1.925000000000        1.000000000000
  5 H     1 shells
 l=0 nsto= 1
    1       1.200000000000        1.000000000000
  6 C     2 shells
 l=0 nsto= 1
    2       1.625000000000        1.000000000000
 l=1 nsto= 1
    2       1.625000000000        1.000000000000
  7 C     2 shells
 l=0 nsto= 1
    2       1.625000000000        1.000000000000
 l=1 nsto= 1
    2       1.625000000000        1.000000000000
  8 C     2 shells
 l=0 nsto= 1
    2       1.625000000000        1.000000000000
 l=1 nsto= 1
    2       1.625000000000        1.000000000000
  9 H     1 shells
 l=0 nsto= 1
    1       1.200000000000        1.000000000000
 10 H     1 shells
 l=0 nsto= 1
    1       1.200000000000        1.000000000000
 11 H     1 shells
 l=0 nsto= 1
    1       1.200000000000        1.000000000000
 12 H     1 shells
 l=0 nsto= 1
    1       1.200000000000        1.000000000000
 13 H     1 shells
 l=0 nsto= 1
    1       1.200000000000        1.000000000000
 14 H     1 shells
 l=0 nsto= 1
    1       1.200000000000        1.000000000000
 15 C     2 shells
 l=0 nsto= 1
    2       1.625000000000        1.000000000000
 l=1 nsto= 1
    2       1.625000000000        1.000000000000
 16 C     2 shells
 l=0 nsto= 1
    2       1.625000000000        1.000000000000
 l=1 nsto= 1
    2       1.625000000000        1.000000000000
 17 C     2 shells
 l=0 nsto= 1
    2       1.625000000000        1.000000000000
 l=1 nsto= 1
    2       1.625000000000        1.000000000000
 18 H     1 shells
 l=0 nsto= 1
    1       1.200000000000        1.000000000000
 19 H     1 shells
 l=0 nsto= 1
    1       1.200000000000        1.000000000000
 20 H     1 shells
 l=0 nsto= 1
    1       1.200000000000        1.000000000000
 21 H     1 shells
 l=0 nsto= 1
    1       1.200000000000        1.000000000000
 22 H     1 shells
 l=0 nsto= 1
    1       1.200000000000        1.000000000000
 23 H     1 shells
 l=0 nsto= 1
    1       1.200000000000        1.000000000000
 24 H     1 shells
 l=0 nsto= 1
    1       1.200000000000        1.000000000000
 25 C     2 shells
 l=0 nsto= 1
    2       1.625000000000        1.000000000000
 l=1 nsto= 1
    2       1.625000000000        1.000000000000
 26 C     2 shells
 l=0 nsto= 1
    2       1.625000000000        1.000000000000
 l=1 nsto= 1
    2       1.625000000000        1.000000000000
 27 C     2 shells
 l=0 nsto= 1
    2       1.625000000000        1.000000000000
 l=1 nsto= 1
    2       1.625000000000        1.000000000000
 28 C     2 shells
 l=0 nsto= 1
    2       1.625000000000        1.000000000000
 l=1 nsto= 1
    2       1.625000000000        1.000000000000
 29 S     2 shells
 l=0 nsto= 1
    3       1.925000000000        1.000000000000
 l=1 nsto= 1
    3       1.925000000000        1.000000000000
 30 H     1 shells
 l=0 nsto= 1
    1       1.200000000000        1.000000000000
 31 C     2 shells
 l=0 nsto= 1
    2       1.625000000000        1.000000000000
 l=1 nsto= 1
    2       1.625000000000        1.000000000000
 32 C     2 shells
 l=0 nsto= 1
    2       1.625000000000        1.000000000000
 l=1 nsto= 1
    2       1.625000000000        1.000000000000
 33 C     2 shells
 l=0 nsto= 1
    2       1.625000000000        1.000000000000
 l=1 nsto= 1
    2       1.625000000000        1.000000000000
 34 H     1 shells
 l=0 nsto= 1
    1       1.200000000000        1.000000000000
 35 H     1 shells
 l=0 nsto= 1
    1       1.200000000000        1.000000000000
 36 H     1 shells
 l=0 nsto= 1
    1       1.200000000000        1.000000000000
 37 H     1 shells
 l=0 nsto= 1
    1       1.200000000000        1.000000000000
 38 H     1 shells
 l=0 nsto= 1
    1       1.200000000000        1.000000000000
 39 H     1 shells
 l=0 nsto= 1
    1       1.200000000000        1.000000000000
 40 C     2 shells
 l=0 nsto= 1
    2       1.625000000000        1.000000000000
 l=1 nsto= 1
    2       1.625000000000        1.000000000000
 41 C     2 shells
 l=0 nsto= 1
    2       1.625000000000        1.000000000000
 l=1 nsto= 1
    2       1.625000000000        1.000000000000
 42 C     2 shells
 l=0 nsto= 1
    2       1.625000000000        1.000000000000
 l=1 nsto= 1
    2       1.625000000000        1.000000000000
 43 H     1 shells
 l=0 nsto= 1
    1       1.200000000000        1.000000000000
 44 H     1 shells
 l=0 nsto= 1
    1       1.200000000000        1.000000000000
 45 H     1 shells
 l=0 nsto= 1
    1       1.200000000000        1.000000000000
 46 H     1 shells
 l=0 nsto= 1
    1       1.200000000000        1.000000000000
 47 H     1 shells
 l=0 nsto= 1
    1       1.200000000000        1.000000000000
 48 H     1 shells
 l=0 nsto= 1
    1       1.200000000000        1.000000000000
 49 H     1 shells
 l=0 nsto= 1
    1       1.200000000000        1.000000000000
 50 H     1 shells
 l=0 nsto= 1
    1       1.200000000000        1.000000000000
 51 H     1 shells
 l=0 nsto= 1
    1       1.200000000000        1.000000000000
 52 H     1 shells
 l=0 nsto= 1
    1       1.200000000000        1.000000000000
 53 H     1 shells
 l=0 nsto= 1
    1       1.200000000000        1.000000000000
------------------------------------------------------------------------------
                           ORCA NDO INTEGRAL CALCULATION
------------------------------------------------------------------------------

--------------
NDO PARAMETERS
--------------

Gamma integral treatment              ... Mataga-Nishimoto
Nuclear repulsuion treatment          ... Direct (ZA*ZB/RAB)
Interaction factors:
s-s (sigma) =    1.0000
s-p (sigma) =    1.0000
s-d (sigma) =    1.0000
p-p (sigma) =    1.2670  p-p(pi) =    0.5850
p-d (sigma) =    1.0000  p-d(pi) =    1.0000
d-d (sigma) =    1.0000  d-d(pi) =    1.0000 d-d (delta) =    1.0000

fGamma parameter for Mataga-Nishimoto gamma integrals:    1.2000

--------------------------
Parameters for Element H :
--------------------------
 One-electron parameters (in eV)
  U(s)  =   -13.060000 Beta(s) =    12.000000 Neff(s) =     1.000000
 One-center electron repulsion parameters (in eV)
  G(s,s)=    12.850000
--------------------------
Parameters for Element C :
--------------------------
 One-electron parameters (in eV)
  U(s)  =   -50.870766 Beta(s) =    17.000000 Neff(s) =     2.000000
  U(p)  =   -41.599980 Beta(p) =    17.000000 Neff(p) =     2.000000 
 One-center electron repulsion parameters (in eV)
  G(s,s)=    11.110000
  G(s,p)=    11.110000 G(p,p)  =    11.110000
 Slater-Condon parameters (in eV)
 F2(p,p)=     4.5098 G1(s,p)=    6.8977
--------------------------
Parameters for Element S :
--------------------------
 One-electron parameters (in eV)
  U(s)  =   -69.509597 Beta(s) =    15.000000 Neff(s) =     2.000000
  U(p)  =   -60.725746 Beta(p) =    15.000000 Neff(p) =     4.000000 
 One-center electron repulsion parameters (in eV)
  G(s,s)=    10.090000
  G(s,p)=    10.090000 G(p,p)  =    10.090000
 Slater-Condon parameters (in eV)
 F2(p,p)=     4.5377 G1(s,p)=    3.0756

 Number of atoms                    ....   54
 Number of basis functions          ....  120

 Overlap integrals                  .... done
 One electron matrix                .... done
 Nuclear repulsion                  .... done
 Integral list                      .... done
 Electron-electron repulsion        .... done
-------------------------------------------------------------------------------
                                 ORCA SCF
-------------------------------------------------------------------------------

------------
SCF SETTINGS
------------
Hamiltonian:
 ZDO-Hamiltonian        Method          .... INDO


General Settings:
 Integral files         IntName         .... /Users/mattyjones/GoogleDrive/Boise/Code/MorphCT/tests/output_EZ/donor_polymer/chromophores/input_orca/pair/00001-00009
 Hartree-Fock type      HFTyp           .... RHF
 Total Charge           Charge          ....    0
 Multiplicity           Mult            ....    1
 Number of Electrons    NEL             ....  124
 Basis Dimension        Dim             ....  120
 Nuclear Repulsion      ENuc            ....    604.7994088188 Eh

Convergence Acceleration:
 DIIS                   CNVDIIS         .... on
   Start iteration      DIISMaxIt       ....    12
   Startup error        DIISStart       ....  0.200000
   # of expansion vecs  DIISMaxEq       ....     5
   Bias factor          DIISBfac        ....   1.050
   Max. coefficient     DIISMaxC        ....  10.000
 Newton-Raphson         CNVNR           .... off
 SOSCF                  CNVSOSCF        .... on
   Start iteration      SOSCFMaxIt      ....   150
   Startup grad/error   SOSCFStart      ....  0.003300
 Level Shifting         CNVShift        .... on
   Level shift para.    LevelShift      ....    0.2500
   Turn off err/grad.   ShiftErr        ....    0.0010
 Zerner damping         CNVZerner       .... off
 Static damping         CNVDamp         .... on
   Fraction old density DampFac         ....    0.7000
   Max. Damping (<1)    DampMax         ....    0.9800
   Min. Damping (>=0)   DampMin         ....    0.0000
   Turn off err/grad.   DampErr         ....    0.1000
 Fernandez-Rico         CNVRico         .... off

SCF Procedure:
 Maximum # iterations   MaxIter         ....   125
 SCF integral mode      SCFMode         .... Conventional
 Integral Buffer length BufferLength    .... 1048576
 Integral index format  IndFormat       ....     0
 Integral value format  ValFormat       ....     0
 Integral Storage       Thresh          ....  1.000e-08 Eh

Convergence Tolerance:
 Convergence Check Mode ConvCheckMode   .... Total+1el-Energy
 Energy Change          TolE            ....  1.000e-06 Eh
 1-El. energy change                    ....  1.000e-03 Eh
 Orbital Gradient       TolG            ....  5.000e-05
 Orbital Rotation angle TolX            ....  5.000e-05
 DIIS Error             TolErr          ....  1.000e-06


Diagonalization of the overlap matrix:
Smallest eigenvalue                        ... 1.697e-01
Time for diagonalization                   ...    0.005 sec
Threshold for overlap eigenvalues          ... 1.000e-08
Number of eigenvalues below threshold      ... 0
Time for construction of square roots      ...    0.001 sec
Total time needed                          ...    0.006 sec

-------------------------------
INITIAL GUESS: EXTENDED HUECKEL
-------------------------------
EHT matrix was read from disk
EHT matrix was diagonalized
Initial density was built
                      ------------------
                      INITIAL GUESS DONE
                      ------------------

 InCore treatment chosen:
   Memory dedicated               ...    1024 MB
   Memory needed                  ...      0 MB
   Number of tiny    integrals    ...       0
   Number of small   integrals    ...       0
   Number of regular integrals    ...    7392

--------------
SCF ITERATIONS
--------------
ITER       Energy         Delta-E        Max-DP      RMS-DP      [F,P]     Damp
  0    -22.0379754376   0.000000000000 0.04187448  0.00144441  0.0960963 0.7000
  1    -22.0796724920  -0.041697054367 0.03952440  0.00135942  0.0683082 0.7000
                               ***Turning on DIIS***
  2    -22.1105297427  -0.030857250702 0.10023583  0.00348604  0.0442656 0.0000
  3    -22.1920401522  -0.081510409521 0.01400433  0.00071638  0.0193005 0.0000
  4    -22.1760313324   0.016008819854 0.01116871  0.00049142  0.0069156 0.0000
  5    -22.1932322458  -0.017200913394 0.00780317  0.00033191  0.0040102 0.0000
  6    -22.1954939522  -0.002261706385 0.00570080  0.00023553  0.0021561 0.0000
                      *** Initiating the SOSCF procedure ***
                           *** Shutting down DIIS ***
                      *** Re-Reading the Fockian *** 
                      *** Removing any level shift *** 
ITER      Energy       Delta-E        Grad      Rot      Max-DP    RMS-DP
  7    -22.19154153   0.0039524238  0.003006  0.003006  0.003396  0.000132
  8    -22.18969891   0.0018426183  0.000799  0.002199  0.001684  0.000061
  9    -22.18971321  -0.0000142983  0.000352  0.002144  0.001883  0.000065
 10    -22.18971842  -0.0000052131  0.000028  0.000081  0.000113  0.000004
                 **** Energy Check signals convergence ****
              ***Rediagonalizing the Fockian in SOSCF/NRSCF***

               *****************************************************
               *                     SUCCESS                       *
               *           SCF CONVERGED AFTER  11 CYCLES          *
               *****************************************************


----------------
TOTAL SCF ENERGY
----------------

Total Energy       :          -22.18971847 Eh            -603.81294 eV

Components:
Nuclear Repulsion  :          604.79940882 Eh           16457.42859 eV
Electronic Energy  :         -626.98912729 Eh          -17061.24153 eV

One Electron Energy:        -1163.64623557 Eh          -31664.42386 eV
Two Electron Energy:          536.65710828 Eh           14603.18233 eV


---------------
SCF CONVERGENCE
---------------

  Last Energy change         ...   -4.7850e-08  Tolerance :   1.0000e-06
  Last MAX-Density change    ...    4.1076e-05  Tolerance :   1.0000e-05
  Last RMS-Density change    ...    1.3640e-06  Tolerance :   1.0000e-06
  Last Orbital Gradient      ...    1.0851e-05  Tolerance :   5.0000e-05
  Last Orbital Rotation      ...    2.1755e-05  Tolerance :   5.0000e-05

             **** THE GBW FILE WAS UPDATED (/Users/mattyjones/GoogleDrive/Boise/Code/MorphCT/tests/output_EZ/donor_polymer/chromophores/input_orca/pair/00001-00009.gbw) ****
             **** DENSITY FILE WAS UPDATED (/Users/mattyjones/GoogleDrive/Boise/Code/MorphCT/tests/output_EZ/donor_polymer/chromophores/input_orca/pair/00001-00009.scfp.tmp) ****
             **** ENERGY FILE WAS UPDATED (/Users/mattyjones/GoogleDrive/Boise/Code/MorphCT/tests/output_EZ/donor_polymer/chromophores/input_orca/pair/00001-00009.en.tmp) ****
----------------
ORBITAL ENERGIES
----------------

  NO   OCC          E(Eh)            E(eV) 
   0   2.0000      -1.559810       -42.4446 
   1   2.0000      -1.554245       -42.2932 
   2   2.0000      -1.400531       -38.1104 
   3   2.0000      -1.374759       -37.4091 
   4   2.0000      -1.297965       -35.3194 
   5   2.0000      -1.282845       -34.9080 
   6   2.0000      -1.173184       -31.9240 
   7   2.0000      -1.172038       -31.8928 
   8   2.0000      -1.119393       -30.4602 
   9   2.0000      -1.109855       -30.2007 
  10   2.0000      -1.062700       -28.9175 
  11   2.0000      -1.037113       -28.2213 
  12   2.0000      -0.959392       -26.1064 
  13   2.0000      -0.949727       -25.8434 
  14   2.0000      -0.923165       -25.1206 
  15   2.0000      -0.903448       -24.5841 
  16   2.0000      -0.842779       -22.9332 
  17   2.0000      -0.839928       -22.8556 
  18   2.0000      -0.835340       -22.7308 
  19   2.0000      -0.832678       -22.6583 
  20   2.0000      -0.786673       -21.4065 
  21   2.0000      -0.775999       -21.1160 
  22   2.0000      -0.739947       -20.1350 
  23   2.0000      -0.722043       -19.6478 
  24   2.0000      -0.695239       -18.9184 
  25   2.0000      -0.682437       -18.5701 
  26   2.0000      -0.675769       -18.3886 
  27   2.0000      -0.671736       -18.2789 
  28   2.0000      -0.640518       -17.4294 
  29   2.0000      -0.638053       -17.3623 
  30   2.0000      -0.623044       -16.9539 
  31   2.0000      -0.622072       -16.9274 
  32   2.0000      -0.589897       -16.0519 
  33   2.0000      -0.580615       -15.7994 
  34   2.0000      -0.576434       -15.6856 
  35   2.0000      -0.575348       -15.6560 
  36   2.0000      -0.565864       -15.3979 
  37   2.0000      -0.561620       -15.2825 
  38   2.0000      -0.558424       -15.1955 
  39   2.0000      -0.556603       -15.1459 
  40   2.0000      -0.531363       -14.4591 
  41   2.0000      -0.529646       -14.4124 
  42   2.0000      -0.521334       -14.1862 
  43   2.0000      -0.521042       -14.1783 
  44   2.0000      -0.515684       -14.0325 
  45   2.0000      -0.507144       -13.8001 
  46   2.0000      -0.497610       -13.5406 
  47   2.0000      -0.493559       -13.4304 
  48   2.0000      -0.491118       -13.3640 
  49   2.0000      -0.489713       -13.3258 
  50   2.0000      -0.487058       -13.2535 
  51   2.0000      -0.485498       -13.2111 
  52   2.0000      -0.460484       -12.5304 
  53   2.0000      -0.459271       -12.4974 
  54   2.0000      -0.457444       -12.4477 
  55   2.0000      -0.451229       -12.2786 
  56   2.0000      -0.437183       -11.8964 
  57   2.0000      -0.436265       -11.8714 
  58   2.0000      -0.358233        -9.7480 
  59   2.0000      -0.355253        -9.6669 
  60   2.0000      -0.305618        -8.3163 
  61   2.0000      -0.305038        -8.3005 
  62   0.0000       0.006694         0.1822 
  63   0.0000       0.008266         0.2249 
  64   0.0000       0.054419         1.4808 
  65   0.0000       0.071026         1.9327 
  66   0.0000       0.073329         1.9954 
  67   0.0000       0.075380         2.0512 
  68   0.0000       0.081260         2.2112 
  69   0.0000       0.089027         2.4225 
  70   0.0000       0.101330         2.7573 
  71   0.0000       0.103028         2.8035 
  72   0.0000       0.106336         2.8936 
  73   0.0000       0.107978         2.9382 
  74   0.0000       0.122472         3.3326 
  75   0.0000       0.122747         3.3401 
  76   0.0000       0.143329         3.9002 
  77   0.0000       0.143398         3.9021 
  78   0.0000       0.157182         4.2771 
  79   0.0000       0.159538         4.3413 
  80   0.0000       0.165464         4.5025 
  81   0.0000       0.165598         4.5061 
  82   0.0000       0.170995         4.6530 
  83   0.0000       0.171084         4.6554 
  84   0.0000       0.203216         5.5298 
  85   0.0000       0.203889         5.5481 
  86   0.0000       0.232603         6.3294 
  87   0.0000       0.233512         6.3542 
  88   0.0000       0.233878         6.3641 
  89   0.0000       0.235942         6.4203 
  90   0.0000       0.236283         6.4296 
  91   0.0000       0.237423         6.4606 
  92   0.0000       0.238828         6.4988 
  93   0.0000       0.238909         6.5010 
  94   0.0000       0.239161         6.5079 
  95   0.0000       0.240703         6.5499 
  96   0.0000       0.241023         6.5586 
  97   0.0000       0.242534         6.5997 
  98   0.0000       0.243569         6.6278 
  99   0.0000       0.245262         6.6739 
 100   0.0000       0.245956         6.6928 
 101   0.0000       0.247320         6.7299 
 102   0.0000       0.254105         6.9146 
 103   0.0000       0.264553         7.1988 
 104   0.0000       0.265424         7.2226 
 105   0.0000       0.267271         7.2728 
 106   0.0000       0.267941         7.2910 
 107   0.0000       0.277885         7.5616 
 108   0.0000       0.297481         8.0949 
 109   0.0000       0.302511         8.2317 
 110   0.0000       0.309490         8.4216 
 111   0.0000       0.310461         8.4481 
 112   0.0000       0.340946         9.2776 
 113   0.0000       0.342862         9.3297 
 114   0.0000       0.354951         9.6587 
 115   0.0000       0.358865         9.7652 
 116   0.0000       0.412497        11.2246 
 117   0.0000       0.419527        11.4159 
 118   0.0000       0.425627        11.5819 
 119   0.0000       0.428872        11.6702 
-------
TIMINGS
-------

Total SCF time: 0 days 0 hours 0 min 0 sec 

Total time                  ....       0.149 sec
Sum of individual times     ....       0.118 sec  ( 78.9%)

Fock matrix formation       ....       0.054 sec  ( 36.3%)
Diagonalization             ....       0.037 sec  ( 24.8%)
Density matrix formation    ....       0.005 sec  (  3.6%)
Population analysis         ....       0.000 sec  (  0.0%)
Initial guess               ....       0.003 sec  (  2.2%)
Orbital Transformation      ....       0.000 sec  (  0.0%)
Orbital Orthonormalization  ....       0.000 sec  (  0.0%)
DIIS solution               ....       0.012 sec  (  8.3%)
SOSCF solution              ....       0.006 sec  (  3.8%)

-------------------------   --------------------
FINAL SINGLE POINT ENERGY       -22.189718469276
-------------------------   --------------------


                            ***************************************
                            *     ORCA property calculations      *
                            ***************************************

                                    ---------------------
                                    Active property flags
                                    ---------------------
   (+) Dipole Moment


------------------------------------------------------------------------------
                       ORCA ELECTRIC PROPERTIES CALCULATION
------------------------------------------------------------------------------

Dipole Moment Calculation                       ... on
Quadrupole Moment Calculation                   ... off
Polarizability Calculation                      ... off
GBWName                                         ... /Users/mattyjones/GoogleDrive/Boise/Code/MorphCT/tests/output_EZ/donor_polymer/chromophores/input_orca/pair/00001-00009.gbw
Electron density file                           ... /Users/mattyjones/GoogleDrive/Boise/Code/MorphCT/tests/output_EZ/donor_polymer/chromophores/input_orca/pair/00001-00009.scfp.tmp

-------------
DIPOLE MOMENT
-------------
                                X             Y             Z
Electronic contribution:   -247.04714    -167.35059     -29.63529
Nuclear contribution   :    132.02519      83.14630      14.43159
                        -----------------------------------------
Total Dipole Moment    :   -115.02195     -84.20430     -15.20370
                        -----------------------------------------
Magnitude (a.u.)       :    143.35817
Magnitude (Debye)      :    364.38752


Timings for individual modules:

Sum of individual times         ...        0.261 sec (=   0.004 min)
STO integral calculation        ...        0.050 sec (=   0.001 min)  19.1 %
SCF iterations                  ...        0.212 sec (=   0.004 min)  80.9 %
                             ****ORCA TERMINATED NORMALLY****
TOTAL RUN TIME: 0 days 0 hours 0 minutes 0 seconds 568 msec

