
                                 *****************
                                 * O   R   C   A *
                                 *****************

           --- An Ab Initio, DFT and Semiempirical electronic structure package ---

                  #######################################################
                  #                        -***-                        #
                  #  Department of molecular theory and spectroscopy    #
                  #              Directorship: Frank Neese              #
                  # Max Planck Institute for Chemical Energy Conversion #
                  #                  D-45470 Muelheim/Ruhr              #
                  #                       Germany                       #
                  #                                                     #
                  #                  All rights reserved                #
                  #                        -***-                        #
                  #######################################################


                         Program Version 3.0.3 - RELEASE   -


 With contributions from (in alphabetic order):
   Ute Becker             : Parallelization
   Dmytro Bykov           : SCF Hessian
   Dmitry Ganyushin       : Spin-Orbit,Spin-Spin,Magnetic field MRCI
   Andreas Hansen         : Spin unrestricted coupled pair/coupled cluster methods
   Dimitrios Liakos       : Extrapolation schemes; parallel MDCI
   Robert Izsak           : Overlap fitted RIJCOSX, COSX-SCS-MP3
   Christian Kollmar      : KDIIS, OOCD, Brueckner-CCSD(T), CCSD density
   Simone Kossmann        : Meta GGA functionals, TD-DFT gradient, OOMP2, MP2 Hessian
   Taras Petrenko         : DFT Hessian,TD-DFT gradient, ASA and ECA modules, normal mode analysis, Resonance Raman, ABS, FL, XAS/XES, NRVS
   Christoph Reimann      : Effective Core Potentials
   Michael Roemelt        : Restricted open shell CIS
   Christoph Riplinger    : Improved optimizer, TS searches, QM/MM, DLPNO-CCSD
   Barbara Sandhoefer     : DKH picture change effects
   Igor Schapiro          : Molecular dynamics
   Kantharuban Sivalingam : CASSCF convergence, NEVPT2
   Boris Wezisla          : Elementary symmetry handling
   Frank Wennmohs         : Technical directorship


 We gratefully acknowledge several colleagues who have allowed us to
 interface, adapt or use parts of their codes:
   Stefan Grimme, W. Hujo, H. Kruse, T. Risthaus : VdW corrections, initial TS optimization,
                                                   DFT functionals, gCP
   Ed Valeev                                     : LibInt (2-el integral package), F12 methods
   Garnet Chan, S. Sharma, R. Olivares           : DMRG
   Ulf Ekstrom                                   : XCFun DFT Library
   Mihaly Kallay                                 : mrcc  (arbitrary order and MRCC methods)
   Andreas Klamt, Michael Diedenhofen            : otool_cosmo (COSMO solvation model)
   Frank Weinhold                                : gennbo (NPA and NBO analysis)
   Christopher J. Cramer and Donald G. Truhlar   : smd solvation model


 Your calculation uses the libint2 library for the computation of 2-el integrals
 For citations please refer to: http://libint.valeyev.net

 This ORCA versions uses:
   CBLAS   interface :  Fast vector & matrix operations
   LAPACKE interface :  Fast linear algebra routines
   SCALAPACK package :  Parallel linear algebra routines


leaving
================================================================================
                                        WARNINGS
                       Please study these warnings very carefully!
================================================================================
Now building the actual basis set

WARNING: Direct SCF is incompatible with Method<>HF and Method<>DFT
  ===> : conventional SCF is chosen

WARNING: The NDO methods need Guess=HUECKEL or Guess=HCORE or Guess=MOREAD
  ===> : Guess is set to Hueckel

WARNING: The NDO methods need %rel::SOCType==1
  ===> : %rel::SOCType is set to 1

WARNING: The NDO methods cannot have frozencore=1
  ===> : %method FrozenCore=0 end


INFO   : the flag for use of LIBINT has been found!

================================================================================
                                       INPUT FILE
================================================================================
NAME = /Users/mattyjones/GoogleDrive/Boise/Code/MorphCT/tests/output_EZ/donor_polymer/chromophores/input_orca/pair/00003-00014.inp
|  1> # ================================================================
|  2> # Orca input file made by Matty Jones
|  3> # ================================================================
|  4> ! ZINDO/S 
|  5> ! NOPOP
|  6> ! NOMOPRINT
|  7> * xyz 0   1
|  8>  C  -10.69500  13.53245  23.26274
|  9>  C  -9.79232  14.28489  24.01566
| 10>  C  -8.93206  13.50295  24.84801
| 11>  C  -9.15660  12.12613  24.75185
| 12>  S  -10.39032  11.95116  23.65744
| 13>  H  -9.19564  15.25185  23.69867
| 14>  C  -7.72450  13.87690  25.88274
| 15>  C  -6.28915  14.71720  25.49227
| 16>  C  -6.03582  16.36381  25.69976
| 17>  H  -5.49316  16.76854  24.76244
| 18>  H  -7.05818  16.88842  25.80193
| 19>  H  -5.45544  14.17539  26.08728
| 20>  H  -6.11607  14.50682  24.36653
| 21>  H  -8.19317  14.54017  26.72213
| 22>  H  -7.33831  12.91088  26.39982
| 23>  C  -5.11902  16.64517  27.02432
| 24>  C  -5.95067  16.47981  28.48157
| 25>  C  -6.84382  17.84036  28.89065
| 26>  H  -6.45787  18.75682  28.29870
| 27>  H  -6.74525  18.04152  30.02565
| 28>  H  -7.95551  17.65090  28.62554
| 29>  H  -6.65495  15.57196  28.40758
| 30>  H  -5.17533  16.29418  29.31524
| 31>  H  -4.22796  15.90680  27.04521
| 32>  H  -4.69529  17.72080  26.97582
| 33>  C  9.02960  -11.01631  -28.99821
| 34>  C  8.30581  -12.02780  -28.36502
| 35>  C  9.11553  -12.96880  -27.65570
| 36>  C  10.48561  -12.69898  -27.72915
| 37>  S  10.62115  -11.32962  -28.65483
| 38>  H  7.16759  -12.10830  -28.39648
| 39>  C  8.54486  -14.24928  -26.83776
| 40>  C  7.21135  -14.14044  -25.76841
| 41>  C  6.82924  -15.59188  -24.93413
| 42>  H  6.52076  -15.21538  -23.87594
| 43>  H  7.85127  -16.13240  -24.83128
| 44>  H  6.29185  -13.85063  -26.39581
| 45>  H  7.43810  -13.32766  -24.99101
| 46>  H  9.40875  -14.67701  -26.17413
| 47>  H  8.25384  -15.07698  -27.59979
| 48>  C  5.72977  -16.74159  -25.32805
| 49>  C  6.06148  -18.19353  -24.49340
| 50>  C  5.01260  -19.49969  -24.67212
| 51>  H  4.97749  -19.82350  -25.78133
| 52>  H  3.95532  -19.19182  -24.31834
| 53>  H  5.39600  -20.38062  -24.02402
| 54>  H  7.09435  -18.54791  -24.87135
| 55>  H  6.13173  -17.94720  -23.37042
| 56>  H  5.73442  -16.94965  -26.45905
| 57>  H  4.67425  -16.39983  -25.00329
| 58>  H  -11.42205  13.89538  22.58209
| 59>  H  -8.64531  11.35558  25.26998
| 60>  H  8.64328  -10.21646  -29.57665
| 61>  H  11.27277  -13.25357  -27.28596
| 62> *
| 63> 
| 64>                          ****END OF INPUT****
================================================================================

                       ****************************
                       * Single Point Calculation *
                       ****************************

---------------------------------
CARTESIAN COORDINATES (ANGSTROEM)
---------------------------------
  C    -10.695000   13.532450   23.262740
  C     -9.792320   14.284890   24.015660
  C     -8.932060   13.502950   24.848010
  C     -9.156600   12.126130   24.751850
  S    -10.390320   11.951160   23.657440
  H     -9.195640   15.251850   23.698670
  C     -7.724500   13.876900   25.882740
  C     -6.289150   14.717200   25.492270
  C     -6.035820   16.363810   25.699760
  H     -5.493160   16.768540   24.762440
  H     -7.058180   16.888420   25.801930
  H     -5.455440   14.175390   26.087280
  H     -6.116070   14.506820   24.366530
  H     -8.193170   14.540170   26.722130
  H     -7.338310   12.910880   26.399820
  C     -5.119020   16.645170   27.024320
  C     -5.950670   16.479810   28.481570
  C     -6.843820   17.840360   28.890650
  H     -6.457870   18.756820   28.298700
  H     -6.745250   18.041520   30.025650
  H     -7.955510   17.650900   28.625540
  H     -6.654950   15.571960   28.407580
  H     -5.175330   16.294180   29.315240
  H     -4.227960   15.906800   27.045210
  H     -4.695290   17.720800   26.975820
  C      9.029600  -11.016310  -28.998210
  C      8.305810  -12.027800  -28.365020
  C      9.115530  -12.968800  -27.655700
  C     10.485610  -12.698980  -27.729150
  S     10.621150  -11.329620  -28.654830
  H      7.167590  -12.108300  -28.396480
  C      8.544860  -14.249280  -26.837760
  C      7.211350  -14.140440  -25.768410
  C      6.829240  -15.591880  -24.934130
  H      6.520760  -15.215380  -23.875940
  H      7.851270  -16.132400  -24.831280
  H      6.291850  -13.850630  -26.395810
  H      7.438100  -13.327660  -24.991010
  H      9.408750  -14.677010  -26.174130
  H      8.253840  -15.076980  -27.599790
  C      5.729770  -16.741590  -25.328050
  C      6.061480  -18.193530  -24.493400
  C      5.012600  -19.499690  -24.672120
  H      4.977490  -19.823500  -25.781330
  H      3.955320  -19.191820  -24.318340
  H      5.396000  -20.380620  -24.024020
  H      7.094350  -18.547910  -24.871350
  H      6.131730  -17.947200  -23.370420
  H      5.734420  -16.949650  -26.459050
  H      4.674250  -16.399830  -25.003290
  H    -11.422050   13.895380   22.582090
  H     -8.645310   11.355580   25.269980
  H      8.643280  -10.216460  -29.576650
  H     11.272770  -13.253570  -27.285960

----------------------------
CARTESIAN COORDINATES (A.U.)
----------------------------
  NO LB      ZA    FRAG    MASS        X           Y           Z
   0 C     4.0000    0    12.011        -20.210621002287787         25.572624420982642         43.960207724615259
   1 C     4.0000    0    12.011        -18.504803015719752         26.994529953190352         45.383020325367248
   2 C     4.0000    0    12.011        -16.879147211752656         25.516877500031967         46.955933872936598
   3 C     4.0000    0    12.011        -17.303466317863332         22.915064764326509         46.774217807898737
   4 S     6.0000    0    32.060        -19.634859243804659         22.584419382674305         44.706082629673979
   5 H     1.0000    0     1.008        -17.377241226131616         28.821819535646842         44.783996038175552
   6 C     4.0000    0    12.011        -14.597189521474709         26.223540587811815         48.911290195488931
   7 C     4.0000    0    12.011        -11.884771115150841         27.811477458145845         48.173408831976708
   8 C     4.0000    0    12.011        -11.406046793644570         30.923119407521920         48.565508107504030
   9 H     1.0000    0     1.008        -10.380568009810862         31.687948265703870         46.794230007656964
  10 H     1.0000    0     1.008        -13.338027203920300         31.914488634638346         48.758581426606760
  11 H     1.0000    0     1.008        -10.309287540039353         26.787604941525974         49.297814778921193
  12 H     1.0000    0     1.008        -11.557697315891749         27.413916874091491         46.046068533976197
  13 H     1.0000    0     1.008        -15.482847468659582         27.476939240657764         50.497507415041099
  14 H     1.0000    0     1.008        -13.867396185815661         24.398027347921211         49.888429784816935
  15 C     4.0000    0    12.011         -9.673545874065566         31.454812752562002         51.068563755450761
  16 C     4.0000    0    12.011        -11.245136613341174         31.142327639056784         53.822367164107504
  17 C     4.0000    0    12.011        -12.932945509852940         33.713394530563342         54.595416330972014
  18 H     1.0000    0     1.008        -12.203605708466034         35.445252943256811         53.476792945997325
  19 H     1.0000    0     1.008        -12.746675204832323         34.093531839662937         56.740255492972629
  20 H     1.0000    0     1.008        -15.033735155671858         33.355367017230620         54.094431035608146
  21 H     1.0000    0     1.008        -12.576032934939235         29.426739768376375         53.682546327458667
  22 H     1.0000    0     1.008         -9.779956352666671         30.791537776816980         55.397775150173629
  23 H     1.0000    0     1.008         -7.989686505173696         30.059495667058567         51.108040134388375
  24 H     1.0000    0     1.008         -8.872812219339114         33.487458873991720         50.976912037955579
  25 C     4.0000    0    12.011         17.063471098855334        -20.817808906378026        -54.798675273936581
  26 C     4.0000    0    12.011         15.695706220384469        -22.729247993578028        -53.602119583198984
  27 C     4.0000    0    12.011         17.225855265543185        -24.507480285597929        -52.261699041885961
  28 C     4.0000    0    12.011         19.814931247106014        -23.997594380143298        -52.400499426422478
  29 S     6.0000    0    32.060         20.071064727297703        -21.409879001396892        -54.149781114070699
  30 H     1.0000    0     1.008         13.544782140232623        -22.881370947358690        -53.661570367372143
  31 C     4.0000    0    12.011         16.147445252698347        -26.927236805561414        -50.716016447906412
  32 C     4.0000    0    12.011         13.627476555853018        -26.721559013145423        -48.695237806597717
  33 C     4.0000    0    12.011         12.905393302820370        -29.464383112964086        -47.118677087589901
  34 H     1.0000    0     1.008         12.322450585028340        -28.752901223542732        -45.118987789935773
  35 H     1.0000    0     1.008         14.836750103471907        -30.485817882871203        -46.924318754716097
  36 H     1.0000    0     1.008         11.889873375712428        -26.173897482273706        -49.880851983019916
  37 H     1.0000    0     1.008         14.055971956719663        -25.185627406016909        -47.226164710087339
  38 H     1.0000    0     1.008         17.779960762531577        -27.735529364823549        -49.461937493652250
  39 H     1.0000    0     1.008         15.597497153204584        -28.491363126608036        -52.156044453738417
  40 C     4.0000    0    12.011         10.827696110357971        -31.637020146394686        -47.863078006264161
  41 C     4.0000    0    12.011         11.454537166240989        -34.380789109280308        -46.285818088586787
  42 C     4.0000    0    12.011          9.472441218893666        -36.849073796362894        -46.623549943241194
  43 H     1.0000    0     1.008          9.406092934331692        -37.460986015787931        -48.719653068247986
  44 H     1.0000    0     1.008          7.474471572021405        -36.267283811512556        -45.955002631582531
  45 H     1.0000    0     1.008         10.196962218639074        -38.513790239518144        -45.398818435846827
  46 H     1.0000    0     1.008         13.406378598184233        -35.050470256619327        -47.000040080902323
  47 H     1.0000    0     1.008         11.587290427148957        -33.915292870711482        -44.163693434715896
  48 H     1.0000    0     1.008         10.836483336880704        -32.030196565818343        -50.000358263729098
  49 H     1.0000    0     1.008          8.833052381481410        -30.991187342865764        -47.249370547011893
  50 H     1.0000    0     1.008        -21.584546387955232         26.258462726766680         42.673965631561757
  51 H     1.0000    0     1.008        -16.337268242850737         21.458936291833485         47.753341609667352
  52 H     1.0000    0     1.008         16.333432098798877        -19.306311458161112        -55.891768458841987
  53 H     1.0000    0     1.008         21.302448070683468        -25.045617596754685        -51.562991701129917

--------------------------------
INTERNAL COORDINATES (ANGSTROEM)
--------------------------------
 C      0   0   0   0.000000     0.000     0.000
 C      1   0   0   1.395667     0.000     0.000
 C      2   1   0   1.429785   114.101     0.000
 C      3   2   1   1.398320   113.693     0.000
 S      1   2   3   1.658040   105.480     0.000
 H      2   1   3   1.179628   128.617   141.125
 C      3   2   1   1.633617   133.495   179.248
 C      7   3   2   1.708450   126.076   300.986
 C      8   7   3   1.678855   125.516    96.305
 H      9   8   7   1.156224   108.297   222.543
 H      9   8   7   1.153635   108.859   341.138
 H      8   7   3   1.158735   104.901   219.964
 H      8   7   3   1.158234   104.972   333.518
 H      7   3   2   1.167970   106.773    61.421
 H      7   3   2   1.161770   109.712   176.571
 C      9   8   7   1.635281   110.699   102.530
 C     16   9   8   1.685990   113.996   284.055
 C     17  16   9   1.678142   113.186   278.322
 H     18  17  16   1.157265   109.868   341.138
 H     18  17  16   1.156895   109.559   220.660
 H     18  17  16   1.158462   108.806   100.909
 H     17  16   9   1.151380   108.876    39.999
 H     17  16   9   1.153523   107.993   158.587
 H     16   9   8   1.157417   109.662    44.693
 H     16   9   8   1.157100   109.347   163.147
 C      5   1   2  60.640378   102.319   244.283
 C     26   5   1   1.395677    73.409   215.231
 C     27  26   5   1.429777   114.102   262.350
 C     28  27  26   1.398326   113.693     0.000
 S     26   5   1   1.658042   101.487   112.308
 H     27  26   5   1.141497   123.760    82.063
 C     28  27  26   1.623059   124.759   180.413
 C     32  28  27   1.712777   122.564   313.873
 C     33  32  28   1.717181   115.016   183.487
 H     34  33  32   1.164765   103.127   142.263
 H     34  33  32   1.160726   103.929    30.014
 H     33  32  28   1.150261   107.328    63.983
 H     33  32  28   1.147335   108.311   304.746
 H     32  28  27   1.170326   108.334   192.774
 H     32  28  27   1.162097   108.633    76.591
 C     34  33  32   1.638853   128.717   264.873
 C     41  34  33   1.707279   110.411   161.876
 C     42  41  34   1.684679   119.113   176.658
 H     43  42  41   1.156042   109.747    60.801
 H     43  42  41   1.156627   109.287   300.227
 H     43  42  41   1.158908   108.908   180.652
 H     42  41  34   1.155531   105.937   296.468
 H     42  41  34   1.151824   107.855    53.372
 H     41  34  33   1.149988   111.137    40.747
 H     41  34  33   1.156024   109.733   279.515
 H      1   2   3   1.060002   127.260   180.000
 H      4   3   2   1.060011   127.206   180.000
 H     26   5   1   1.059998    94.091   342.968
 H     29  28  27   1.060004   127.206   180.000

---------------------------
INTERNAL COORDINATES (A.U.)
---------------------------
 C      0   0   0   0.000000     0.000     0.000
 C      1   0   0   2.637428     0.000     0.000
 C      2   1   0   2.701901   114.101     0.000
 C      3   2   1   2.642441   113.693     0.000
 S      1   2   3   3.133241   105.480     0.000
 H      2   1   3   2.229173   128.617   141.125
 C      3   2   1   3.087090   133.495   179.248
 C      7   3   2   3.228502   126.076   300.986
 C      8   7   3   3.172575   125.516    96.305
 H      9   8   7   2.184948   108.297   222.543
 H      9   8   7   2.180055   108.859   341.138
 H      8   7   3   2.189692   104.901   219.964
 H      8   7   3   2.188746   104.972   333.518
 H      7   3   2   2.207144   106.773    61.421
 H      7   3   2   2.195427   109.712   176.571
 C      9   8   7   3.090234   110.699   102.530
 C     16   9   8   3.186060   113.996   284.055
 C     17  16   9   3.171228   113.186   278.322
 H     18  17  16   2.186913   109.868   341.138
 H     18  17  16   2.186215   109.559   220.660
 H     18  17  16   2.189175   108.806   100.909
 H     17  16   9   2.175793   108.876    39.999
 H     17  16   9   2.179843   107.993   158.587
 H     16   9   8   2.187202   109.662    44.693
 H     16   9   8   2.186601   109.347   163.147
 C      5   1   2 114.593707   102.319   244.283
 C     26   5   1   2.637447    73.409   215.231
 C     27  26   5   2.701887   114.102   262.350
 C     28  27  26   2.642454   113.693     0.000
 S     26   5   1   3.133246   101.487   112.308
 H     27  26   5   2.157116   123.760    82.063
 C     28  27  26   3.067136   124.759   180.413
 C     32  28  27   3.236679   122.564   313.873
 C     33  32  28   3.245001   115.016   183.487
 H     34  33  32   2.201087   103.127   142.263
 H     34  33  32   2.193455   103.929    30.014
 H     33  32  28   2.173679   107.328    63.983
 H     33  32  28   2.168149   108.311   304.746
 H     32  28  27   2.211596   108.334   192.774
 H     32  28  27   2.196045   108.633    76.591
 C     34  33  32   3.096984   128.717   264.873
 C     41  34  33   3.226290   110.411   161.876
 C     42  41  34   3.183582   119.113   176.658
 H     43  42  41   2.184602   109.747    60.801
 H     43  42  41   2.185708   109.287   300.227
 H     43  42  41   2.190018   108.908   180.652
 H     42  41  34   2.183637   105.937   296.468
 H     42  41  34   2.176631   107.855    53.372
 H     41  34  33   2.173162   111.137    40.747
 H     41  34  33   2.184569   109.733   279.515
 H      1   2   3   2.003114   127.260   180.000
 H      4   3   2   2.003131   127.206   180.000
 H     26   5   1   2.003106    94.091   342.968
 H     29  28  27   2.003117   127.206   180.000

----------------------------
SLATER BASIS SET DIM= 120
----------------------------
  0 C     2 shells
 l=0 nsto= 1
    2       1.625000000000        1.000000000000
 l=1 nsto= 1
    2       1.625000000000        1.000000000000
  1 C     2 shells
 l=0 nsto= 1
    2       1.625000000000        1.000000000000
 l=1 nsto= 1
    2       1.625000000000        1.000000000000
  2 C     2 shells
 l=0 nsto= 1
    2       1.625000000000        1.000000000000
 l=1 nsto= 1
    2       1.625000000000        1.000000000000
  3 C     2 shells
 l=0 nsto= 1
    2       1.625000000000        1.000000000000
 l=1 nsto= 1
    2       1.625000000000        1.000000000000
  4 S     2 shells
 l=0 nsto= 1
    3       1.925000000000        1.000000000000
 l=1 nsto= 1
    3       1.925000000000        1.000000000000
  5 H     1 shells
 l=0 nsto= 1
    1       1.200000000000        1.000000000000
  6 C     2 shells
 l=0 nsto= 1
    2       1.625000000000        1.000000000000
 l=1 nsto= 1
    2       1.625000000000        1.000000000000
  7 C     2 shells
 l=0 nsto= 1
    2       1.625000000000        1.000000000000
 l=1 nsto= 1
    2       1.625000000000        1.000000000000
  8 C     2 shells
 l=0 nsto= 1
    2       1.625000000000        1.000000000000
 l=1 nsto= 1
    2       1.625000000000        1.000000000000
  9 H     1 shells
 l=0 nsto= 1
    1       1.200000000000        1.000000000000
 10 H     1 shells
 l=0 nsto= 1
    1       1.200000000000        1.000000000000
 11 H     1 shells
 l=0 nsto= 1
    1       1.200000000000        1.000000000000
 12 H     1 shells
 l=0 nsto= 1
    1       1.200000000000        1.000000000000
 13 H     1 shells
 l=0 nsto= 1
    1       1.200000000000        1.000000000000
 14 H     1 shells
 l=0 nsto= 1
    1       1.200000000000        1.000000000000
 15 C     2 shells
 l=0 nsto= 1
    2       1.625000000000        1.000000000000
 l=1 nsto= 1
    2       1.625000000000        1.000000000000
 16 C     2 shells
 l=0 nsto= 1
    2       1.625000000000        1.000000000000
 l=1 nsto= 1
    2       1.625000000000        1.000000000000
 17 C     2 shells
 l=0 nsto= 1
    2       1.625000000000        1.000000000000
 l=1 nsto= 1
    2       1.625000000000        1.000000000000
 18 H     1 shells
 l=0 nsto= 1
    1       1.200000000000        1.000000000000
 19 H     1 shells
 l=0 nsto= 1
    1       1.200000000000        1.000000000000
 20 H     1 shells
 l=0 nsto= 1
    1       1.200000000000        1.000000000000
 21 H     1 shells
 l=0 nsto= 1
    1       1.200000000000        1.000000000000
 22 H     1 shells
 l=0 nsto= 1
    1       1.200000000000        1.000000000000
 23 H     1 shells
 l=0 nsto= 1
    1       1.200000000000        1.000000000000
 24 H     1 shells
 l=0 nsto= 1
    1       1.200000000000        1.000000000000
 25 C     2 shells
 l=0 nsto= 1
    2       1.625000000000        1.000000000000
 l=1 nsto= 1
    2       1.625000000000        1.000000000000
 26 C     2 shells
 l=0 nsto= 1
    2       1.625000000000        1.000000000000
 l=1 nsto= 1
    2       1.625000000000        1.000000000000
 27 C     2 shells
 l=0 nsto= 1
    2       1.625000000000        1.000000000000
 l=1 nsto= 1
    2       1.625000000000        1.000000000000
 28 C     2 shells
 l=0 nsto= 1
    2       1.625000000000        1.000000000000
 l=1 nsto= 1
    2       1.625000000000        1.000000000000
 29 S     2 shells
 l=0 nsto= 1
    3       1.925000000000        1.000000000000
 l=1 nsto= 1
    3       1.925000000000        1.000000000000
 30 H     1 shells
 l=0 nsto= 1
    1       1.200000000000        1.000000000000
 31 C     2 shells
 l=0 nsto= 1
    2       1.625000000000        1.000000000000
 l=1 nsto= 1
    2       1.625000000000        1.000000000000
 32 C     2 shells
 l=0 nsto= 1
    2       1.625000000000        1.000000000000
 l=1 nsto= 1
    2       1.625000000000        1.000000000000
 33 C     2 shells
 l=0 nsto= 1
    2       1.625000000000        1.000000000000
 l=1 nsto= 1
    2       1.625000000000        1.000000000000
 34 H     1 shells
 l=0 nsto= 1
    1       1.200000000000        1.000000000000
 35 H     1 shells
 l=0 nsto= 1
    1       1.200000000000        1.000000000000
 36 H     1 shells
 l=0 nsto= 1
    1       1.200000000000        1.000000000000
 37 H     1 shells
 l=0 nsto= 1
    1       1.200000000000        1.000000000000
 38 H     1 shells
 l=0 nsto= 1
    1       1.200000000000        1.000000000000
 39 H     1 shells
 l=0 nsto= 1
    1       1.200000000000        1.000000000000
 40 C     2 shells
 l=0 nsto= 1
    2       1.625000000000        1.000000000000
 l=1 nsto= 1
    2       1.625000000000        1.000000000000
 41 C     2 shells
 l=0 nsto= 1
    2       1.625000000000        1.000000000000
 l=1 nsto= 1
    2       1.625000000000        1.000000000000
 42 C     2 shells
 l=0 nsto= 1
    2       1.625000000000        1.000000000000
 l=1 nsto= 1
    2       1.625000000000        1.000000000000
 43 H     1 shells
 l=0 nsto= 1
    1       1.200000000000        1.000000000000
 44 H     1 shells
 l=0 nsto= 1
    1       1.200000000000        1.000000000000
 45 H     1 shells
 l=0 nsto= 1
    1       1.200000000000        1.000000000000
 46 H     1 shells
 l=0 nsto= 1
    1       1.200000000000        1.000000000000
 47 H     1 shells
 l=0 nsto= 1
    1       1.200000000000        1.000000000000
 48 H     1 shells
 l=0 nsto= 1
    1       1.200000000000        1.000000000000
 49 H     1 shells
 l=0 nsto= 1
    1       1.200000000000        1.000000000000
 50 H     1 shells
 l=0 nsto= 1
    1       1.200000000000        1.000000000000
 51 H     1 shells
 l=0 nsto= 1
    1       1.200000000000        1.000000000000
 52 H     1 shells
 l=0 nsto= 1
    1       1.200000000000        1.000000000000
 53 H     1 shells
 l=0 nsto= 1
    1       1.200000000000        1.000000000000
------------------------------------------------------------------------------
                           ORCA NDO INTEGRAL CALCULATION
------------------------------------------------------------------------------

--------------
NDO PARAMETERS
--------------

Gamma integral treatment              ... Mataga-Nishimoto
Nuclear repulsuion treatment          ... Direct (ZA*ZB/RAB)
Interaction factors:
s-s (sigma) =    1.0000
s-p (sigma) =    1.0000
s-d (sigma) =    1.0000
p-p (sigma) =    1.2670  p-p(pi) =    0.5850
p-d (sigma) =    1.0000  p-d(pi) =    1.0000
d-d (sigma) =    1.0000  d-d(pi) =    1.0000 d-d (delta) =    1.0000

fGamma parameter for Mataga-Nishimoto gamma integrals:    1.2000

--------------------------
Parameters for Element H :
--------------------------
 One-electron parameters (in eV)
  U(s)  =   -13.060000 Beta(s) =    12.000000 Neff(s) =     1.000000
 One-center electron repulsion parameters (in eV)
  G(s,s)=    12.850000
--------------------------
Parameters for Element C :
--------------------------
 One-electron parameters (in eV)
  U(s)  =   -50.870766 Beta(s) =    17.000000 Neff(s) =     2.000000
  U(p)  =   -41.599980 Beta(p) =    17.000000 Neff(p) =     2.000000 
 One-center electron repulsion parameters (in eV)
  G(s,s)=    11.110000
  G(s,p)=    11.110000 G(p,p)  =    11.110000
 Slater-Condon parameters (in eV)
 F2(p,p)=     4.5098 G1(s,p)=    6.8977
--------------------------
Parameters for Element S :
--------------------------
 One-electron parameters (in eV)
  U(s)  =   -69.509597 Beta(s) =    15.000000 Neff(s) =     2.000000
  U(p)  =   -60.725746 Beta(p) =    15.000000 Neff(p) =     4.000000 
 One-center electron repulsion parameters (in eV)
  G(s,s)=    10.090000
  G(s,p)=    10.090000 G(p,p)  =    10.090000
 Slater-Condon parameters (in eV)
 F2(p,p)=     4.5377 G1(s,p)=    3.0756

 Number of atoms                    ....   54
 Number of basis functions          ....  120

 Overlap integrals                  .... done
 One electron matrix                .... done
 Nuclear repulsion                  .... done
 Integral list                      .... done
 Electron-electron repulsion        .... done
-------------------------------------------------------------------------------
                                 ORCA SCF
-------------------------------------------------------------------------------

------------
SCF SETTINGS
------------
Hamiltonian:
 ZDO-Hamiltonian        Method          .... INDO


General Settings:
 Integral files         IntName         .... /Users/mattyjones/GoogleDrive/Boise/Code/MorphCT/tests/output_EZ/donor_polymer/chromophores/input_orca/pair/00003-00014
 Hartree-Fock type      HFTyp           .... RHF
 Total Charge           Charge          ....    0
 Multiplicity           Mult            ....    1
 Number of Electrons    NEL             ....  124
 Basis Dimension        Dim             ....  120
 Nuclear Repulsion      ENuc            ....    615.2477642291 Eh

Convergence Acceleration:
 DIIS                   CNVDIIS         .... on
   Start iteration      DIISMaxIt       ....    12
   Startup error        DIISStart       ....  0.200000
   # of expansion vecs  DIISMaxEq       ....     5
   Bias factor          DIISBfac        ....   1.050
   Max. coefficient     DIISMaxC        ....  10.000
 Newton-Raphson         CNVNR           .... off
 SOSCF                  CNVSOSCF        .... on
   Start iteration      SOSCFMaxIt      ....   150
   Startup grad/error   SOSCFStart      ....  0.003300
 Level Shifting         CNVShift        .... on
   Level shift para.    LevelShift      ....    0.2500
   Turn off err/grad.   ShiftErr        ....    0.0010
 Zerner damping         CNVZerner       .... off
 Static damping         CNVDamp         .... on
   Fraction old density DampFac         ....    0.7000
   Max. Damping (<1)    DampMax         ....    0.9800
   Min. Damping (>=0)   DampMin         ....    0.0000
   Turn off err/grad.   DampErr         ....    0.1000
 Fernandez-Rico         CNVRico         .... off

SCF Procedure:
 Maximum # iterations   MaxIter         ....   125
 SCF integral mode      SCFMode         .... Conventional
 Integral Buffer length BufferLength    .... 1048576
 Integral index format  IndFormat       ....     0
 Integral value format  ValFormat       ....     0
 Integral Storage       Thresh          ....  1.000e-08 Eh

Convergence Tolerance:
 Convergence Check Mode ConvCheckMode   .... Total+1el-Energy
 Energy Change          TolE            ....  1.000e-06 Eh
 1-El. energy change                    ....  1.000e-03 Eh
 Orbital Gradient       TolG            ....  5.000e-05
 Orbital Rotation angle TolX            ....  5.000e-05
 DIIS Error             TolErr          ....  1.000e-06


Diagonalization of the overlap matrix:
Smallest eigenvalue                        ... 1.692e-01
Time for diagonalization                   ...    0.004 sec
Threshold for overlap eigenvalues          ... 1.000e-08
Number of eigenvalues below threshold      ... 0
Time for construction of square roots      ...    0.000 sec
Total time needed                          ...    0.005 sec

-------------------------------
INITIAL GUESS: EXTENDED HUECKEL
-------------------------------
EHT matrix was read from disk
EHT matrix was diagonalized
Initial density was built
                      ------------------
                      INITIAL GUESS DONE
                      ------------------

 InCore treatment chosen:
   Memory dedicated               ...    1024 MB
   Memory needed                  ...      0 MB
   Number of tiny    integrals    ...       0
   Number of small   integrals    ...       0
   Number of regular integrals    ...    7392

--------------
SCF ITERATIONS
--------------
ITER       Energy         Delta-E        Max-DP      RMS-DP      [F,P]     Damp
  0    -20.7132721452   0.000000000000 0.04354245  0.00147025  0.1110090 0.7000
  1    -20.7560991257  -0.042826980519 0.04075018  0.00138612  0.0760057 0.7000
                               ***Turning on DIIS***
  2    -20.7877509943  -0.031651868575 0.10218160  0.00355624  0.0501997 0.0000
  3    -20.8707152135  -0.082964219222 0.01993212  0.00073549  0.0224181 0.0000
  4    -20.8545618992   0.016153314328 0.01160472  0.00050919  0.0070328 0.0000
  5    -20.8723138068  -0.017751907639 0.00823152  0.00034717  0.0040628 0.0000
  6    -20.8744107740  -0.002096967185 0.00600693  0.00024854  0.0022062 0.0000
                      *** Initiating the SOSCF procedure ***
                           *** Shutting down DIIS ***
                      *** Re-Reading the Fockian *** 
                      *** Removing any level shift *** 
ITER      Energy       Delta-E        Grad      Rot      Max-DP    RMS-DP
  7    -20.87072999   0.0036807835  0.003150  0.003150  0.003592  0.000142
  8    -20.86882025   0.0019097416  0.000902  0.002542  0.001738  0.000067
  9    -20.86883684  -0.0000165901  0.000403  0.002562  0.001975  0.000073
 10    -20.86884319  -0.0000063478  0.000036  0.000073  0.000144  0.000004
                 **** Energy Check signals convergence ****
              ***Rediagonalizing the Fockian in SOSCF/NRSCF***

               *****************************************************
               *                     SUCCESS                       *
               *           SCF CONVERGED AFTER  11 CYCLES          *
               *****************************************************


----------------
TOTAL SCF ENERGY
----------------

Total Energy       :          -20.86884325 Eh            -567.87009 eV

Components:
Nuclear Repulsion  :          615.24776423 Eh           16741.74280 eV
Electronic Energy  :         -636.11660747 Eh          -17309.61289 eV

One Electron Energy:        -1181.91137041 Eh          -32161.44345 eV
Two Electron Energy:          545.79476294 Eh           14851.83055 eV


---------------
SCF CONVERGENCE
---------------

  Last Energy change         ...   -5.8917e-08  Tolerance :   1.0000e-06
  Last MAX-Density change    ...    5.8699e-05  Tolerance :   1.0000e-05
  Last RMS-Density change    ...    1.5217e-06  Tolerance :   1.0000e-06
  Last Orbital Gradient      ...    1.1618e-05  Tolerance :   5.0000e-05
  Last Orbital Rotation      ...    2.8287e-05  Tolerance :   5.0000e-05

             **** THE GBW FILE WAS UPDATED (/Users/mattyjones/GoogleDrive/Boise/Code/MorphCT/tests/output_EZ/donor_polymer/chromophores/input_orca/pair/00003-00014.gbw) ****
             **** DENSITY FILE WAS UPDATED (/Users/mattyjones/GoogleDrive/Boise/Code/MorphCT/tests/output_EZ/donor_polymer/chromophores/input_orca/pair/00003-00014.scfp.tmp) ****
             **** ENERGY FILE WAS UPDATED (/Users/mattyjones/GoogleDrive/Boise/Code/MorphCT/tests/output_EZ/donor_polymer/chromophores/input_orca/pair/00003-00014.en.tmp) ****
----------------
ORBITAL ENERGIES
----------------

  NO   OCC          E(Eh)            E(eV) 
   0   2.0000      -1.558349       -42.4048 
   1   2.0000      -1.555262       -42.3208 
   2   2.0000      -1.413001       -38.4497 
   3   2.0000      -1.387217       -37.7481 
   4   2.0000      -1.289418       -35.0868 
   5   2.0000      -1.279247       -34.8101 
   6   2.0000      -1.191268       -32.4160 
   7   2.0000      -1.181971       -32.1631 
   8   2.0000      -1.115692       -30.3595 
   9   2.0000      -1.098557       -29.8933 
  10   2.0000      -1.042097       -28.3569 
  11   2.0000      -1.029262       -28.0076 
  12   2.0000      -0.983682       -26.7673 
  13   2.0000      -0.947247       -25.7759 
  14   2.0000      -0.912243       -24.8234 
  15   2.0000      -0.890130       -24.2217 
  16   2.0000      -0.871557       -23.7163 
  17   2.0000      -0.847808       -23.0700 
  18   2.0000      -0.832322       -22.6486 
  19   2.0000      -0.821239       -22.3470 
  20   2.0000      -0.775470       -21.1016 
  21   2.0000      -0.774449       -21.0738 
  22   2.0000      -0.729685       -19.8557 
  23   2.0000      -0.727105       -19.7855 
  24   2.0000      -0.699490       -19.0341 
  25   2.0000      -0.698251       -19.0004 
  26   2.0000      -0.680555       -18.5188 
  27   2.0000      -0.668933       -18.2026 
  28   2.0000      -0.638796       -17.3825 
  29   2.0000      -0.629691       -17.1348 
  30   2.0000      -0.618598       -16.8329 
  31   2.0000      -0.610504       -16.6127 
  32   2.0000      -0.608823       -16.5669 
  33   2.0000      -0.586854       -15.9691 
  34   2.0000      -0.586136       -15.9496 
  35   2.0000      -0.578244       -15.7348 
  36   2.0000      -0.566112       -15.4047 
  37   2.0000      -0.562004       -15.2929 
  38   2.0000      -0.549690       -14.9578 
  39   2.0000      -0.547899       -14.9091 
  40   2.0000      -0.532573       -14.4920 
  41   2.0000      -0.531867       -14.4728 
  42   2.0000      -0.522330       -14.2133 
  43   2.0000      -0.512673       -13.9505 
  44   2.0000      -0.504395       -13.7253 
  45   2.0000      -0.500035       -13.6067 
  46   2.0000      -0.499927       -13.6037 
  47   2.0000      -0.496890       -13.5211 
  48   2.0000      -0.487513       -13.2659 
  49   2.0000      -0.485224       -13.2036 
  50   2.0000      -0.483237       -13.1495 
  51   2.0000      -0.473827       -12.8935 
  52   2.0000      -0.469745       -12.7824 
  53   2.0000      -0.462885       -12.5958 
  54   2.0000      -0.460521       -12.5314 
  55   2.0000      -0.459534       -12.5045 
  56   2.0000      -0.439575       -11.9614 
  57   2.0000      -0.434311       -11.8182 
  58   2.0000      -0.357689        -9.7332 
  59   2.0000      -0.351858        -9.5745 
  60   2.0000      -0.305033        -8.3004 
  61   2.0000      -0.304443        -8.2843 
  62   0.0000       0.002854         0.0777 
  63   0.0000       0.007456         0.2029 
  64   0.0000       0.056031         1.5247 
  65   0.0000       0.062758         1.7077 
  66   0.0000       0.074709         2.0329 
  67   0.0000       0.075876         2.0647 
  68   0.0000       0.084510         2.2996 
  69   0.0000       0.091986         2.5031 
  70   0.0000       0.103044         2.8040 
  71   0.0000       0.104025         2.8307 
  72   0.0000       0.108252         2.9457 
  73   0.0000       0.109083         2.9683 
  74   0.0000       0.123901         3.3715 
  75   0.0000       0.126974         3.4551 
  76   0.0000       0.141174         3.8415 
  77   0.0000       0.141675         3.8552 
  78   0.0000       0.155541         4.2325 
  79   0.0000       0.158285         4.3072 
  80   0.0000       0.164931         4.4880 
  81   0.0000       0.166200         4.5225 
  82   0.0000       0.172192         4.6856 
  83   0.0000       0.174856         4.7581 
  84   0.0000       0.199484         5.4282 
  85   0.0000       0.204973         5.5776 
  86   0.0000       0.231822         6.3082 
  87   0.0000       0.234414         6.3787 
  88   0.0000       0.234738         6.3875 
  89   0.0000       0.236460         6.4344 
  90   0.0000       0.237025         6.4498 
  91   0.0000       0.237873         6.4729 
  92   0.0000       0.239083         6.5058 
  93   0.0000       0.239623         6.5205 
  94   0.0000       0.240624         6.5477 
  95   0.0000       0.241420         6.5694 
  96   0.0000       0.241751         6.5784 
  97   0.0000       0.242812         6.6072 
  98   0.0000       0.244447         6.6518 
  99   0.0000       0.245612         6.6834 
 100   0.0000       0.246137         6.6977 
 101   0.0000       0.247318         6.7299 
 102   0.0000       0.258014         7.0209 
 103   0.0000       0.262651         7.1471 
 104   0.0000       0.265275         7.2185 
 105   0.0000       0.265719         7.2306 
 106   0.0000       0.270636         7.3644 
 107   0.0000       0.288549         7.8518 
 108   0.0000       0.302195         8.2231 
 109   0.0000       0.307548         8.3688 
 110   0.0000       0.309305         8.4166 
 111   0.0000       0.309955         8.4343 
 112   0.0000       0.334930         9.1139 
 113   0.0000       0.343917         9.3585 
 114   0.0000       0.354395         9.6436 
 115   0.0000       0.356912         9.7121 
 116   0.0000       0.400801        10.9064 
 117   0.0000       0.409671        11.1477 
 118   0.0000       0.431060        11.7297 
 119   0.0000       0.438340        11.9278 
-------
TIMINGS
-------

Total SCF time: 0 days 0 hours 0 min 0 sec 

Total time                  ....       0.165 sec
Sum of individual times     ....       0.131 sec  ( 79.7%)

Fock matrix formation       ....       0.056 sec  ( 33.8%)
Diagonalization             ....       0.034 sec  ( 20.4%)
Density matrix formation    ....       0.006 sec  (  3.6%)
Population analysis         ....       0.000 sec  (  0.0%)
Initial guess               ....       0.004 sec  (  2.4%)
Orbital Transformation      ....       0.000 sec  (  0.0%)
Orbital Orthonormalization  ....       0.000 sec  (  0.0%)
DIIS solution               ....       0.013 sec  (  7.8%)
SOSCF solution              ....       0.019 sec  ( 11.6%)

-------------------------   --------------------
FINAL SINGLE POINT ENERGY       -20.868843245651
-------------------------   --------------------


                            ***************************************
                            *     ORCA property calculations      *
                            ***************************************

                                    ---------------------
                                    Active property flags
                                    ---------------------
   (+) Dipole Moment


------------------------------------------------------------------------------
                       ORCA ELECTRIC PROPERTIES CALCULATION
------------------------------------------------------------------------------

Dipole Moment Calculation                       ... on
Quadrupole Moment Calculation                   ... off
Polarizability Calculation                      ... off
GBWName                                         ... /Users/mattyjones/GoogleDrive/Boise/Code/MorphCT/tests/output_EZ/donor_polymer/chromophores/input_orca/pair/00003-00014.gbw
Electron density file                           ... /Users/mattyjones/GoogleDrive/Boise/Code/MorphCT/tests/output_EZ/donor_polymer/chromophores/input_orca/pair/00003-00014.scfp.tmp

-------------
DIPOLE MOMENT
-------------
                                X             Y             Z
Electronic contribution:      3.48082      22.33092    -134.16102
Nuclear contribution   :     -2.38465     -12.02523      73.61654
                        -----------------------------------------
Total Dipole Moment    :      1.09617      10.30568     -60.54447
                        -----------------------------------------
Magnitude (a.u.)       :     61.42509
Magnitude (Debye)      :    156.13018


Timings for individual modules:

Sum of individual times         ...        0.262 sec (=   0.004 min)
STO integral calculation        ...        0.047 sec (=   0.001 min)  18.1 %
SCF iterations                  ...        0.215 sec (=   0.004 min)  81.9 %
                             ****ORCA TERMINATED NORMALLY****
TOTAL RUN TIME: 0 days 0 hours 0 minutes 0 seconds 602 msec

