
                                 *****************
                                 * O   R   C   A *
                                 *****************

           --- An Ab Initio, DFT and Semiempirical electronic structure package ---

                  #######################################################
                  #                        -***-                        #
                  #  Department of molecular theory and spectroscopy    #
                  #              Directorship: Frank Neese              #
                  # Max Planck Institute for Chemical Energy Conversion #
                  #                  D-45470 Muelheim/Ruhr              #
                  #                       Germany                       #
                  #                                                     #
                  #                  All rights reserved                #
                  #                        -***-                        #
                  #######################################################


                         Program Version 3.0.3 - RELEASE   -


 With contributions from (in alphabetic order):
   Ute Becker             : Parallelization
   Dmytro Bykov           : SCF Hessian
   Dmitry Ganyushin       : Spin-Orbit,Spin-Spin,Magnetic field MRCI
   Andreas Hansen         : Spin unrestricted coupled pair/coupled cluster methods
   Dimitrios Liakos       : Extrapolation schemes; parallel MDCI
   Robert Izsak           : Overlap fitted RIJCOSX, COSX-SCS-MP3
   Christian Kollmar      : KDIIS, OOCD, Brueckner-CCSD(T), CCSD density
   Simone Kossmann        : Meta GGA functionals, TD-DFT gradient, OOMP2, MP2 Hessian
   Taras Petrenko         : DFT Hessian,TD-DFT gradient, ASA and ECA modules, normal mode analysis, Resonance Raman, ABS, FL, XAS/XES, NRVS
   Christoph Reimann      : Effective Core Potentials
   Michael Roemelt        : Restricted open shell CIS
   Christoph Riplinger    : Improved optimizer, TS searches, QM/MM, DLPNO-CCSD
   Barbara Sandhoefer     : DKH picture change effects
   Igor Schapiro          : Molecular dynamics
   Kantharuban Sivalingam : CASSCF convergence, NEVPT2
   Boris Wezisla          : Elementary symmetry handling
   Frank Wennmohs         : Technical directorship


 We gratefully acknowledge several colleagues who have allowed us to
 interface, adapt or use parts of their codes:
   Stefan Grimme, W. Hujo, H. Kruse, T. Risthaus : VdW corrections, initial TS optimization,
                                                   DFT functionals, gCP
   Ed Valeev                                     : LibInt (2-el integral package), F12 methods
   Garnet Chan, S. Sharma, R. Olivares           : DMRG
   Ulf Ekstrom                                   : XCFun DFT Library
   Mihaly Kallay                                 : mrcc  (arbitrary order and MRCC methods)
   Andreas Klamt, Michael Diedenhofen            : otool_cosmo (COSMO solvation model)
   Frank Weinhold                                : gennbo (NPA and NBO analysis)
   Christopher J. Cramer and Donald G. Truhlar   : smd solvation model


 Your calculation uses the libint2 library for the computation of 2-el integrals
 For citations please refer to: http://libint.valeyev.net

 This ORCA versions uses:
   CBLAS   interface :  Fast vector & matrix operations
   LAPACKE interface :  Fast linear algebra routines
   SCALAPACK package :  Parallel linear algebra routines


leaving
================================================================================
                                        WARNINGS
                       Please study these warnings very carefully!
================================================================================
Now building the actual basis set

WARNING: Direct SCF is incompatible with Method<>HF and Method<>DFT
  ===> : conventional SCF is chosen

WARNING: The NDO methods need Guess=HUECKEL or Guess=HCORE or Guess=MOREAD
  ===> : Guess is set to Hueckel

WARNING: The NDO methods need %rel::SOCType==1
  ===> : %rel::SOCType is set to 1

WARNING: The NDO methods cannot have frozencore=1
  ===> : %method FrozenCore=0 end


INFO   : the flag for use of LIBINT has been found!

================================================================================
                                       INPUT FILE
================================================================================
NAME = /Users/mattyjones/GoogleDrive/Boise/Code/MorphCT/tests/output_EZ/donor_polymer/chromophores/input_orca/pair/00008-00020.inp
|  1> # ================================================================
|  2> # Orca input file made by Matty Jones
|  3> # ================================================================
|  4> ! ZINDO/S 
|  5> ! NOPOP
|  6> ! NOMOPRINT
|  7> * xyz 0   1
|  8>  C  20.59083  0.71320  2.26984
|  9>  C  19.90621  -0.36286  2.83666
| 10>  C  20.65725  -1.08043  3.81916
| 11>  C  21.94139  -0.56839  4.02920
| 12>  S  22.07805  0.72699  3.00269
| 13>  H  18.85852  -0.69764  2.52570
| 14>  C  20.07599  -2.34468  4.62864
| 15>  C  19.25324  -3.66593  3.93533
| 16>  C  17.56031  -3.68331  3.77128
| 17>  H  17.09559  -3.43983  4.79862
| 18>  H  17.26333  -2.86822  3.01193
| 19>  H  19.52170  -4.58488  4.58175
| 20>  H  19.68738  -3.80504  2.87621
| 21>  H  19.34168  -1.94428  5.44951
| 22>  H  20.95462  -2.87005  5.18330
| 23>  C  17.04747  -5.14653  3.25400
| 24>  C  15.38238  -5.43673  3.15184
| 25>  C  14.70273  -6.13468  4.52742
| 26>  H  13.80384  -6.79392  4.21430
| 27>  H  14.34036  -5.29868  5.24061
| 28>  H  15.49124  -6.78907  5.06442
| 29>  H  15.20241  -6.15358  2.26714
| 30>  H  14.84978  -4.43536  2.95229
| 31>  H  17.47685  -5.32893  2.19341
| 32>  H  17.47855  -5.95481  3.96388
| 33>  C  -20.59685  -1.19668  -3.75295
| 34>  C  -19.72486  -0.11732  -3.60284
| 35>  C  -20.28254  0.98891  -2.88904
| 36>  C  -21.60154  0.78202  -2.47340
| 37>  S  -22.00271  -0.73735  -3.00350
| 38>  H  -18.63169  -0.11642  -3.92904
| 39>  C  -19.19721  2.19704  -2.75637
| 40>  C  -19.30791  3.82908  -3.22427
| 41>  C  -17.74587  4.48886  -2.94916
| 42>  H  -17.68689  4.68631  -1.80987
| 43>  H  -16.98000  3.66062  -3.21303
| 44>  H  -19.56648  3.90251  -4.33732
| 45>  H  -20.07688  4.37908  -2.57944
| 46>  H  -18.94708  2.27991  -1.61040
| 47>  H  -18.20582  1.85239  -3.27673
| 48>  C  -17.28323  5.84428  -3.73108
| 49>  C  -16.49293  5.59833  -5.21889
| 50>  C  -14.81120  5.46731  -5.17077
| 51>  H  -14.45037  5.46707  -4.07223
| 52>  H  -14.34131  6.36289  -5.73419
| 53>  H  -14.49049  4.48031  -5.68420
| 54>  H  -16.91075  4.63054  -5.68358
| 55>  H  -16.75292  6.49234  -5.89891
| 56>  H  -18.21189  6.49804  -3.94392
| 57>  H  -16.55357  6.43964  -3.05924
| 58>  H  20.23502  1.38086  1.52738
| 59>  H  22.67408  -0.93205  4.70338
| 60>  H  -20.40152  -2.11619  -4.24279
| 61>  H  -22.21629  1.45533  -1.93272
| 62> *
| 63> 
| 64>                          ****END OF INPUT****
================================================================================

                       ****************************
                       * Single Point Calculation *
                       ****************************

---------------------------------
CARTESIAN COORDINATES (ANGSTROEM)
---------------------------------
  C     20.590830    0.713200    2.269840
  C     19.906210   -0.362860    2.836660
  C     20.657250   -1.080430    3.819160
  C     21.941390   -0.568390    4.029200
  S     22.078050    0.726990    3.002690
  H     18.858520   -0.697640    2.525700
  C     20.075990   -2.344680    4.628640
  C     19.253240   -3.665930    3.935330
  C     17.560310   -3.683310    3.771280
  H     17.095590   -3.439830    4.798620
  H     17.263330   -2.868220    3.011930
  H     19.521700   -4.584880    4.581750
  H     19.687380   -3.805040    2.876210
  H     19.341680   -1.944280    5.449510
  H     20.954620   -2.870050    5.183300
  C     17.047470   -5.146530    3.254000
  C     15.382380   -5.436730    3.151840
  C     14.702730   -6.134680    4.527420
  H     13.803840   -6.793920    4.214300
  H     14.340360   -5.298680    5.240610
  H     15.491240   -6.789070    5.064420
  H     15.202410   -6.153580    2.267140
  H     14.849780   -4.435360    2.952290
  H     17.476850   -5.328930    2.193410
  H     17.478550   -5.954810    3.963880
  C    -20.596850   -1.196680   -3.752950
  C    -19.724860   -0.117320   -3.602840
  C    -20.282540    0.988910   -2.889040
  C    -21.601540    0.782020   -2.473400
  S    -22.002710   -0.737350   -3.003500
  H    -18.631690   -0.116420   -3.929040
  C    -19.197210    2.197040   -2.756370
  C    -19.307910    3.829080   -3.224270
  C    -17.745870    4.488860   -2.949160
  H    -17.686890    4.686310   -1.809870
  H    -16.980000    3.660620   -3.213030
  H    -19.566480    3.902510   -4.337320
  H    -20.076880    4.379080   -2.579440
  H    -18.947080    2.279910   -1.610400
  H    -18.205820    1.852390   -3.276730
  C    -17.283230    5.844280   -3.731080
  C    -16.492930    5.598330   -5.218890
  C    -14.811200    5.467310   -5.170770
  H    -14.450370    5.467070   -4.072230
  H    -14.341310    6.362890   -5.734190
  H    -14.490490    4.480310   -5.684200
  H    -16.910750    4.630540   -5.683580
  H    -16.752920    6.492340   -5.898910
  H    -18.211890    6.498040   -3.943920
  H    -16.553570    6.439640   -3.059240
  H     20.235020    1.380860    1.527380
  H     22.674080   -0.932050    4.703380
  H    -20.401520   -2.116190   -4.242790
  H    -22.216290    1.455330   -1.932720

----------------------------
CARTESIAN COORDINATES (A.U.)
----------------------------
  NO LB      ZA    FRAG    MASS        X           Y           Z
   0 C     4.0000    0    12.011         38.911029570129728          1.347752678712637          4.289375967819813
   1 C     4.0000    0    12.011         37.617285264324565         -0.685706024954665          5.360510535049058
   2 C     4.0000    0    12.011         39.036545179944781         -2.041716806872538          7.217166461626688
   3 C     4.0000    0    12.011         41.463218097558411         -1.074101437259500          7.614084538795508
   4 S     6.0000    0    32.060         41.721468071020091          1.373812002099411          5.674261765064003
   5 H     1.0000    0     1.008         35.637438091076604         -1.318348540068822          4.772881296444905
   6 C     4.0000    0    12.011         37.938122967341712         -4.430803071682480          8.746861972513262
   7 C     4.0000    0    12.011         36.383350790658000         -6.927603726125934          7.436695946604320
   8 C     4.0000    0    12.011         33.184176726758700         -6.960447166333486          7.126686374334538
   9 H     1.0000    0     1.008         32.305983197802810         -6.500336647246339          9.068077620757196
  10 H     1.0000    0     1.008         32.622965859506763         -5.420150291835612          5.691722834541435
  11 H     1.0000    0     1.008         36.890666668570496         -8.664167556892869          8.658252714093695
  12 H     1.0000    0     1.008         37.203756494438572         -7.190483528615720          5.435249203645643
  13 H     1.0000    0     1.008         36.550478169941996         -3.674156727660411         10.298081464065200
  14 H     1.0000    0     1.008         39.598493040388938         -5.423608490660689          9.795017469954024
  15 C     4.0000    0    12.011         32.215049576238521         -9.725532240009739          6.149168839779753
  16 C     4.0000    0    12.011         29.068485487907584        -10.273930764073686          5.956114417938358
  17 C     4.0000    0    12.011         27.784133120988006        -11.592865119244024          8.555583893237754
  18 H     1.0000    0     1.008         26.085477196467529        -12.838648175770270          7.963872846184330
  19 H     1.0000    0     1.008         27.099353061838961        -10.013054071285858          9.903317674689051
  20 H     1.0000    0     1.008         29.274201074846250        -12.829483004020751          9.570366827153466
  21 H     1.0000    0     1.008         28.728391475585777        -11.628580943175136          4.284273707258226
  22 H     1.0000    0     1.008         28.062017348981126         -8.381615705348963          5.579019567914372
  23 H     1.0000    0     1.008         33.026460183621623        -10.070218286836974          4.144944199404213
  24 H     1.0000    0     1.008         33.029672718049291        -11.252960079535608          7.490647627727771
  25 C     4.0000    0    12.011        -38.922405721455931         -2.261397469940883         -7.092047694299761
  26 C     4.0000    0    12.011        -37.274583429937941         -0.221702670031641         -6.808380904336842
  27 C     4.0000    0    12.011        -38.328445900303144          1.868769071096065         -5.459494389943853
  28 C     4.0000    0    12.011        -40.820994670945275          1.477803631249097         -4.674048619640823
  29 S     6.0000    0    32.060        -41.579096104090461         -1.393389564846835         -5.675792443232479
  30 H     1.0000    0     1.008        -35.208791512119241         -0.220001916511112         -7.424809569221955
  31 C     4.0000    0    12.011        -36.277469435374385          4.151803905270347         -5.208784423756520
  32 C     4.0000    0    12.011        -36.486662118399472          7.235912544875186         -6.092987281818274
  33 C     4.0000    0    12.011        -33.534834308169124          8.482716053513750         -5.573104725115199
  34 H     1.0000    0     1.008        -33.423378260790443          8.855842478656500         -3.420158638000056
  35 H     1.0000    0     1.008        -32.087549753982856          6.917569280354813         -6.071746760072999
  36 H     1.0000    0     1.008        -36.975288604847492          7.374675134889023         -8.196346955179324
  37 H     1.0000    0     1.008        -37.939804823600895          8.275261918531875         -4.874435178881833
  38 H     1.0000    0     1.008        -35.804792237496670          4.308405509988401         -3.043214966066784
  39 H     1.0000    0     1.008        -34.404013843466203          3.500509793214387         -6.192122314803783
  40 C     4.0000    0    12.011        -32.660571409571794         11.044088649953293         -7.050719383750904
  41 C     4.0000    0    12.011        -31.167120845933830         10.579310507315361         -9.862272823060280
  42 C     4.0000    0    12.011        -27.989111714734442         10.331718589248998         -9.771339201495991
  43 H     1.0000    0     1.008        -27.307241833831636         10.331265054976857         -7.695399454338139
  44 H     1.0000    0     1.008        -27.101148301666186         12.024119520266193        -10.836048699869902
  45 H     1.0000    0     1.008        -27.383057646324556          8.466558895068724        -10.741581290435178
  46 H     1.0000    0     1.008        -31.956686219208805          8.750452452167712        -10.740409660232148
  47 H     1.0000    0     1.008        -31.658430743492016         12.268744568302299        -11.147324388649411
  48 H     1.0000    0     1.008        -34.415484481099107         12.279516007265649         -7.452928694094703
  49 H     1.0000    0     1.008        -31.281713838694817         12.169156001044648         -5.781125777937250
  50 H     1.0000    0     1.008         38.238646114419204          2.609447229286499          2.886329902428641
  51 H     1.0000    0     1.008         42.847801538621177         -1.761319243121303          8.888100103762536
  52 H     1.0000    0     1.008        -38.553285515717100         -3.999019547342813         -8.017711143739747
  53 H     1.0000    0     1.008        -41.982703811773362          2.750175134479615         -3.652311493552281

--------------------------------
INTERNAL COORDINATES (ANGSTROEM)
--------------------------------
 C      0   0   0   0.000000     0.000     0.000
 C      1   0   0   1.395670     0.000     0.000
 C      2   1   0   1.429781   114.101     0.000
 C      3   2   1   1.398327   113.693     0.000
 S      1   2   3   1.658036   105.480     0.000
 H      2   1   3   1.142991   124.400   183.012
 C      3   2   1   1.609798   123.368   179.032
 C      7   3   2   1.703907   125.361    47.243
 C      8   7   3   1.700949   121.854   268.885
 H      9   8   7   1.153549   108.235   307.998
 H      9   8   7   1.152901   108.221    66.567
 H      8   7   3   1.155162   106.078   147.643
 H      8   7   3   1.153067   106.588    31.234
 H      7   3   2   1.171904   108.068   283.835
 H      7   3   2   1.164325   108.750   167.950
 C      9   8   7   1.634502   110.607   187.249
 C     16   9   8   1.693274   118.754   174.619
 C     17  16   9   1.685609   114.723   267.285
 H     18  17  16   1.157862   109.153   210.400
 H     18  17  16   1.157086   109.276    90.594
 H     18  17  16   1.156868   109.767   330.331
 H     17  16   9   1.152804   107.842   147.157
 H     17  16   9   1.151618   108.434    28.548
 H     16   9   8   1.158658   108.321   296.004
 H     16   9   8   1.158912   108.288    53.181
 C     19  18  17  35.752114   135.899   278.249
 C     26  19  18   1.395678    59.731     9.690
 C     27  26  19   1.429777   114.102   221.439
 C     28  27  26   1.398328   113.693     0.000
 S     26  19  18   1.658042   139.332   291.525
 H     27  26  19   1.140801   124.649    36.437
 C     28  27  26   1.629454   110.763   179.779
 C     32  28  27   1.701393   130.202   124.200
 C     33  32  28   1.717837   105.380   186.085
 H     34  33  32   1.157777   105.629   281.291
 H     34  33  32   1.158519   106.862    36.361
 H     33  32  28   1.145046   110.092   304.255
 H     33  32  28   1.144387   110.474    67.734
 H     32  28  27   1.175874   105.860   246.322
 H     32  28  27   1.171500   108.022   359.372
 C     34  33  32   1.631747   120.007   158.620
 C     41  34  33   1.702540   115.491   269.162
 C     42  41  34   1.687512   116.673   269.204
 H     43  42  41   1.156282   109.761     5.477
 H     43  42  41   1.157714   109.302   245.214
 H     43  42  41   1.157858   109.243   125.614
 H     42  41  34   1.152010   107.788    30.727
 H     42  41  34   1.152942   107.381   148.467
 H     41  34  33   1.155471   109.292    29.945
 H     41  34  33   1.156817   109.149   148.859
 H      1   2   3   1.060008   127.260   180.000
 H      4   3   2   1.060001   127.206   180.000
 H     26  19  18   1.059998    77.870   157.090
 H     29  28  27   1.059999   127.206   180.000

---------------------------
INTERNAL COORDINATES (A.U.)
---------------------------
 C      0   0   0   0.000000     0.000     0.000
 C      1   0   0   2.637434     0.000     0.000
 C      2   1   0   2.701895   114.101     0.000
 C      3   2   1   2.642454   113.693     0.000
 S      1   2   3   3.133234   105.480     0.000
 H      2   1   3   2.159940   124.400   183.012
 C      3   2   1   3.042077   123.368   179.032
 C      7   3   2   3.219917   125.361    47.243
 C      8   7   3   3.214327   121.854   268.885
 H      9   8   7   2.179891   108.235   307.998
 H      9   8   7   2.178668   108.221    66.567
 H      8   7   3   2.182939   106.078   147.643
 H      8   7   3   2.178981   106.588    31.234
 H      7   3   2   2.214578   108.068   283.835
 H      7   3   2   2.200255   108.750   167.950
 C      9   8   7   3.088761   110.607   187.249
 C     16   9   8   3.199824   118.754   174.619
 C     17  16   9   3.185340   114.723   267.285
 H     18  17  16   2.188042   109.153   210.400
 H     18  17  16   2.186576   109.276    90.594
 H     18  17  16   2.186163   109.767   330.331
 H     17  16   9   2.178484   107.842   147.157
 H     17  16   9   2.176243   108.434    28.548
 H     16   9   8   2.189546   108.321   296.004
 H     16   9   8   2.190026   108.288    53.181
 C     19  18  17  67.561704   135.899   278.249
 C     26  19  18   2.637450    59.731     9.690
 C     27  26  19   2.701887   114.102   221.439
 C     28  27  26   2.642457   113.693     0.000
 S     26  19  18   3.133244   139.332   291.525
 H     27  26  19   2.155802   124.649    36.437
 C     28  27  26   3.079222   110.763   179.779
 C     32  28  27   3.215168   130.202   124.200
 C     33  32  28   3.246242   105.380   186.085
 H     34  33  32   2.187881   105.629   281.291
 H     34  33  32   2.189283   106.862    36.361
 H     33  32  28   2.163824   110.092   304.255
 H     33  32  28   2.162577   110.474    67.734
 H     32  28  27   2.222080   105.860   246.322
 H     32  28  27   2.213814   108.022   359.372
 C     34  33  32   3.083555   120.007   158.620
 C     41  34  33   3.217335   115.491   269.162
 C     42  41  34   3.188936   116.673   269.204
 H     43  42  41   2.185057   109.761     5.477
 H     43  42  41   2.187763   109.302   245.214
 H     43  42  41   2.188034   109.243   125.614
 H     42  41  34   2.176984   107.788    30.727
 H     42  41  34   2.178745   107.381   148.467
 H     41  34  33   2.183523   109.292    29.945
 H     41  34  33   2.186068   109.149   148.859
 H      1   2   3   2.003125   127.260   180.000
 H      4   3   2   2.003111   127.206   180.000
 H     26  19  18   2.003106    77.870   157.090
 H     29  28  27   2.003109   127.206   180.000

----------------------------
SLATER BASIS SET DIM= 120
----------------------------
  0 C     2 shells
 l=0 nsto= 1
    2       1.625000000000        1.000000000000
 l=1 nsto= 1
    2       1.625000000000        1.000000000000
  1 C     2 shells
 l=0 nsto= 1
    2       1.625000000000        1.000000000000
 l=1 nsto= 1
    2       1.625000000000        1.000000000000
  2 C     2 shells
 l=0 nsto= 1
    2       1.625000000000        1.000000000000
 l=1 nsto= 1
    2       1.625000000000        1.000000000000
  3 C     2 shells
 l=0 nsto= 1
    2       1.625000000000        1.000000000000
 l=1 nsto= 1
    2       1.625000000000        1.000000000000
  4 S     2 shells
 l=0 nsto= 1
    3       1.925000000000        1.000000000000
 l=1 nsto= 1
    3       1.925000000000        1.000000000000
  5 H     1 shells
 l=0 nsto= 1
    1       1.200000000000        1.000000000000
  6 C     2 shells
 l=0 nsto= 1
    2       1.625000000000        1.000000000000
 l=1 nsto= 1
    2       1.625000000000        1.000000000000
  7 C     2 shells
 l=0 nsto= 1
    2       1.625000000000        1.000000000000
 l=1 nsto= 1
    2       1.625000000000        1.000000000000
  8 C     2 shells
 l=0 nsto= 1
    2       1.625000000000        1.000000000000
 l=1 nsto= 1
    2       1.625000000000        1.000000000000
  9 H     1 shells
 l=0 nsto= 1
    1       1.200000000000        1.000000000000
 10 H     1 shells
 l=0 nsto= 1
    1       1.200000000000        1.000000000000
 11 H     1 shells
 l=0 nsto= 1
    1       1.200000000000        1.000000000000
 12 H     1 shells
 l=0 nsto= 1
    1       1.200000000000        1.000000000000
 13 H     1 shells
 l=0 nsto= 1
    1       1.200000000000        1.000000000000
 14 H     1 shells
 l=0 nsto= 1
    1       1.200000000000        1.000000000000
 15 C     2 shells
 l=0 nsto= 1
    2       1.625000000000        1.000000000000
 l=1 nsto= 1
    2       1.625000000000        1.000000000000
 16 C     2 shells
 l=0 nsto= 1
    2       1.625000000000        1.000000000000
 l=1 nsto= 1
    2       1.625000000000        1.000000000000
 17 C     2 shells
 l=0 nsto= 1
    2       1.625000000000        1.000000000000
 l=1 nsto= 1
    2       1.625000000000        1.000000000000
 18 H     1 shells
 l=0 nsto= 1
    1       1.200000000000        1.000000000000
 19 H     1 shells
 l=0 nsto= 1
    1       1.200000000000        1.000000000000
 20 H     1 shells
 l=0 nsto= 1
    1       1.200000000000        1.000000000000
 21 H     1 shells
 l=0 nsto= 1
    1       1.200000000000        1.000000000000
 22 H     1 shells
 l=0 nsto= 1
    1       1.200000000000        1.000000000000
 23 H     1 shells
 l=0 nsto= 1
    1       1.200000000000        1.000000000000
 24 H     1 shells
 l=0 nsto= 1
    1       1.200000000000        1.000000000000
 25 C     2 shells
 l=0 nsto= 1
    2       1.625000000000        1.000000000000
 l=1 nsto= 1
    2       1.625000000000        1.000000000000
 26 C     2 shells
 l=0 nsto= 1
    2       1.625000000000        1.000000000000
 l=1 nsto= 1
    2       1.625000000000        1.000000000000
 27 C     2 shells
 l=0 nsto= 1
    2       1.625000000000        1.000000000000
 l=1 nsto= 1
    2       1.625000000000        1.000000000000
 28 C     2 shells
 l=0 nsto= 1
    2       1.625000000000        1.000000000000
 l=1 nsto= 1
    2       1.625000000000        1.000000000000
 29 S     2 shells
 l=0 nsto= 1
    3       1.925000000000        1.000000000000
 l=1 nsto= 1
    3       1.925000000000        1.000000000000
 30 H     1 shells
 l=0 nsto= 1
    1       1.200000000000        1.000000000000
 31 C     2 shells
 l=0 nsto= 1
    2       1.625000000000        1.000000000000
 l=1 nsto= 1
    2       1.625000000000        1.000000000000
 32 C     2 shells
 l=0 nsto= 1
    2       1.625000000000        1.000000000000
 l=1 nsto= 1
    2       1.625000000000        1.000000000000
 33 C     2 shells
 l=0 nsto= 1
    2       1.625000000000        1.000000000000
 l=1 nsto= 1
    2       1.625000000000        1.000000000000
 34 H     1 shells
 l=0 nsto= 1
    1       1.200000000000        1.000000000000
 35 H     1 shells
 l=0 nsto= 1
    1       1.200000000000        1.000000000000
 36 H     1 shells
 l=0 nsto= 1
    1       1.200000000000        1.000000000000
 37 H     1 shells
 l=0 nsto= 1
    1       1.200000000000        1.000000000000
 38 H     1 shells
 l=0 nsto= 1
    1       1.200000000000        1.000000000000
 39 H     1 shells
 l=0 nsto= 1
    1       1.200000000000        1.000000000000
 40 C     2 shells
 l=0 nsto= 1
    2       1.625000000000        1.000000000000
 l=1 nsto= 1
    2       1.625000000000        1.000000000000
 41 C     2 shells
 l=0 nsto= 1
    2       1.625000000000        1.000000000000
 l=1 nsto= 1
    2       1.625000000000        1.000000000000
 42 C     2 shells
 l=0 nsto= 1
    2       1.625000000000        1.000000000000
 l=1 nsto= 1
    2       1.625000000000        1.000000000000
 43 H     1 shells
 l=0 nsto= 1
    1       1.200000000000        1.000000000000
 44 H     1 shells
 l=0 nsto= 1
    1       1.200000000000        1.000000000000
 45 H     1 shells
 l=0 nsto= 1
    1       1.200000000000        1.000000000000
 46 H     1 shells
 l=0 nsto= 1
    1       1.200000000000        1.000000000000
 47 H     1 shells
 l=0 nsto= 1
    1       1.200000000000        1.000000000000
 48 H     1 shells
 l=0 nsto= 1
    1       1.200000000000        1.000000000000
 49 H     1 shells
 l=0 nsto= 1
    1       1.200000000000        1.000000000000
 50 H     1 shells
 l=0 nsto= 1
    1       1.200000000000        1.000000000000
 51 H     1 shells
 l=0 nsto= 1
    1       1.200000000000        1.000000000000
 52 H     1 shells
 l=0 nsto= 1
    1       1.200000000000        1.000000000000
 53 H     1 shells
 l=0 nsto= 1
    1       1.200000000000        1.000000000000
------------------------------------------------------------------------------
                           ORCA NDO INTEGRAL CALCULATION
------------------------------------------------------------------------------

--------------
NDO PARAMETERS
--------------

Gamma integral treatment              ... Mataga-Nishimoto
Nuclear repulsuion treatment          ... Direct (ZA*ZB/RAB)
Interaction factors:
s-s (sigma) =    1.0000
s-p (sigma) =    1.0000
s-d (sigma) =    1.0000
p-p (sigma) =    1.2670  p-p(pi) =    0.5850
p-d (sigma) =    1.0000  p-d(pi) =    1.0000
d-d (sigma) =    1.0000  d-d(pi) =    1.0000 d-d (delta) =    1.0000

fGamma parameter for Mataga-Nishimoto gamma integrals:    1.2000

--------------------------
Parameters for Element H :
--------------------------
 One-electron parameters (in eV)
  U(s)  =   -13.060000 Beta(s) =    12.000000 Neff(s) =     1.000000
 One-center electron repulsion parameters (in eV)
  G(s,s)=    12.850000
--------------------------
Parameters for Element C :
--------------------------
 One-electron parameters (in eV)
  U(s)  =   -50.870766 Beta(s) =    17.000000 Neff(s) =     2.000000
  U(p)  =   -41.599980 Beta(p) =    17.000000 Neff(p) =     2.000000 
 One-center electron repulsion parameters (in eV)
  G(s,s)=    11.110000
  G(s,p)=    11.110000 G(p,p)  =    11.110000
 Slater-Condon parameters (in eV)
 F2(p,p)=     4.5098 G1(s,p)=    6.8977
--------------------------
Parameters for Element S :
--------------------------
 One-electron parameters (in eV)
  U(s)  =   -69.509597 Beta(s) =    15.000000 Neff(s) =     2.000000
  U(p)  =   -60.725746 Beta(p) =    15.000000 Neff(p) =     4.000000 
 One-center electron repulsion parameters (in eV)
  G(s,s)=    10.090000
  G(s,p)=    10.090000 G(p,p)  =    10.090000
 Slater-Condon parameters (in eV)
 F2(p,p)=     4.5377 G1(s,p)=    3.0756

 Number of atoms                    ....   54
 Number of basis functions          ....  120

 Overlap integrals                  .... done
 One electron matrix                .... done
 Nuclear repulsion                  .... done
 Integral list                      .... done
 Electron-electron repulsion        .... done
-------------------------------------------------------------------------------
                                 ORCA SCF
-------------------------------------------------------------------------------

------------
SCF SETTINGS
------------
Hamiltonian:
 ZDO-Hamiltonian        Method          .... INDO


General Settings:
 Integral files         IntName         .... /Users/mattyjones/GoogleDrive/Boise/Code/MorphCT/tests/output_EZ/donor_polymer/chromophores/input_orca/pair/00008-00020
 Hartree-Fock type      HFTyp           .... RHF
 Total Charge           Charge          ....    0
 Multiplicity           Mult            ....    1
 Number of Electrons    NEL             ....  124
 Basis Dimension        Dim             ....  120
 Nuclear Repulsion      ENuc            ....    632.0601710959 Eh

Convergence Acceleration:
 DIIS                   CNVDIIS         .... on
   Start iteration      DIISMaxIt       ....    12
   Startup error        DIISStart       ....  0.200000
   # of expansion vecs  DIISMaxEq       ....     5
   Bias factor          DIISBfac        ....   1.050
   Max. coefficient     DIISMaxC        ....  10.000
 Newton-Raphson         CNVNR           .... off
 SOSCF                  CNVSOSCF        .... on
   Start iteration      SOSCFMaxIt      ....   150
   Startup grad/error   SOSCFStart      ....  0.003300
 Level Shifting         CNVShift        .... on
   Level shift para.    LevelShift      ....    0.2500
   Turn off err/grad.   ShiftErr        ....    0.0010
 Zerner damping         CNVZerner       .... off
 Static damping         CNVDamp         .... on
   Fraction old density DampFac         ....    0.7000
   Max. Damping (<1)    DampMax         ....    0.9800
   Min. Damping (>=0)   DampMin         ....    0.0000
   Turn off err/grad.   DampErr         ....    0.1000
 Fernandez-Rico         CNVRico         .... off

SCF Procedure:
 Maximum # iterations   MaxIter         ....   125
 SCF integral mode      SCFMode         .... Conventional
 Integral Buffer length BufferLength    .... 1048576
 Integral index format  IndFormat       ....     0
 Integral value format  ValFormat       ....     0
 Integral Storage       Thresh          ....  1.000e-08 Eh

Convergence Tolerance:
 Convergence Check Mode ConvCheckMode   .... Total+1el-Energy
 Energy Change          TolE            ....  1.000e-06 Eh
 1-El. energy change                    ....  1.000e-03 Eh
 Orbital Gradient       TolG            ....  5.000e-05
 Orbital Rotation angle TolX            ....  5.000e-05
 DIIS Error             TolErr          ....  1.000e-06


Diagonalization of the overlap matrix:
Smallest eigenvalue                        ... 1.697e-01
Time for diagonalization                   ...    0.003 sec
Threshold for overlap eigenvalues          ... 1.000e-08
Number of eigenvalues below threshold      ... 0
Time for construction of square roots      ...    0.001 sec
Total time needed                          ...    0.005 sec

-------------------------------
INITIAL GUESS: EXTENDED HUECKEL
-------------------------------
EHT matrix was read from disk
EHT matrix was diagonalized
Initial density was built
                      ------------------
                      INITIAL GUESS DONE
                      ------------------

 InCore treatment chosen:
   Memory dedicated               ...    1024 MB
   Memory needed                  ...      0 MB
   Number of tiny    integrals    ...       0
   Number of small   integrals    ...       0
   Number of regular integrals    ...    7392

--------------
SCF ITERATIONS
--------------
ITER       Energy         Delta-E        Max-DP      RMS-DP      [F,P]     Damp
  0    -24.0161249553   0.000000000000 0.04296220  0.00144634  0.0966383 0.7000
  1    -24.0578730932  -0.041748137895 0.04116967  0.00136243  0.0689412 0.7000
                               ***Turning on DIIS***
  2    -24.0887705522  -0.030897459072 0.10631315  0.00349698  0.0449853 0.0000
  3    -24.1689449110  -0.080174358804 0.01693042  0.00072166  0.0195099 0.0000
  4    -24.1549870625   0.013957848519 0.01281074  0.00049659  0.0076672 0.0000
  5    -24.1718557406  -0.016868678056 0.00897984  0.00033569  0.0044832 0.0000
  6    -24.1743258590  -0.002470118450 0.00675053  0.00023771  0.0024478 0.0000
                      *** Initiating the SOSCF procedure ***
                           *** Shutting down DIIS ***
                      *** Re-Reading the Fockian *** 
                      *** Removing any level shift *** 
ITER      Energy       Delta-E        Grad      Rot      Max-DP    RMS-DP
  7    -24.17019789   0.0041279669  0.003011  0.003011  0.004025  0.000133
  8    -24.16805447   0.0021434260  0.000808  0.002221  0.001999  0.000062
  9    -24.16806881  -0.0000143447  0.000354  0.002151  0.002242  0.000065
 10    -24.16807403  -0.0000052206  0.000034  0.000096  0.000155  0.000004
                 **** Energy Check signals convergence ****
              ***Rediagonalizing the Fockian in SOSCF/NRSCF***

               *****************************************************
               *                     SUCCESS                       *
               *           SCF CONVERGED AFTER  11 CYCLES          *
               *****************************************************


----------------
TOTAL SCF ENERGY
----------------

Total Energy       :          -24.16807408 Eh            -657.64673 eV

Components:
Nuclear Repulsion  :          632.06017110 Eh           17199.23165 eV
Electronic Energy  :         -656.22824518 Eh          -17856.87838 eV

One Electron Energy:        -1222.06300250 Eh          -33254.02490 eV
Two Electron Energy:          565.83475732 Eh           15397.14652 eV


---------------
SCF CONVERGENCE
---------------

  Last Energy change         ...   -5.1431e-08  Tolerance :   1.0000e-06
  Last MAX-Density change    ...    7.2148e-05  Tolerance :   1.0000e-05
  Last RMS-Density change    ...    1.5000e-06  Tolerance :   1.0000e-06
  Last Orbital Gradient      ...    1.3998e-05  Tolerance :   5.0000e-05
  Last Orbital Rotation      ...    2.9309e-05  Tolerance :   5.0000e-05

             **** THE GBW FILE WAS UPDATED (/Users/mattyjones/GoogleDrive/Boise/Code/MorphCT/tests/output_EZ/donor_polymer/chromophores/input_orca/pair/00008-00020.gbw) ****
             **** DENSITY FILE WAS UPDATED (/Users/mattyjones/GoogleDrive/Boise/Code/MorphCT/tests/output_EZ/donor_polymer/chromophores/input_orca/pair/00008-00020.scfp.tmp) ****
             **** ENERGY FILE WAS UPDATED (/Users/mattyjones/GoogleDrive/Boise/Code/MorphCT/tests/output_EZ/donor_polymer/chromophores/input_orca/pair/00008-00020.en.tmp) ****
----------------
ORBITAL ENERGIES
----------------

  NO   OCC          E(Eh)            E(eV) 
   0   2.0000      -1.557393       -42.3788 
   1   2.0000      -1.556351       -42.3505 
   2   2.0000      -1.399444       -38.0808 
   3   2.0000      -1.396316       -37.9957 
   4   2.0000      -1.292060       -35.1588 
   5   2.0000      -1.291184       -35.1349 
   6   2.0000      -1.188459       -32.3396 
   7   2.0000      -1.169553       -31.8252 
   8   2.0000      -1.115071       -30.3426 
   9   2.0000      -1.109135       -30.1811 
  10   2.0000      -1.062537       -28.9131 
  11   2.0000      -1.032149       -28.0862 
  12   2.0000      -0.968441       -26.3526 
  13   2.0000      -0.949879       -25.8475 
  14   2.0000      -0.891403       -24.2563 
  15   2.0000      -0.887641       -24.1539 
  16   2.0000      -0.868572       -23.6351 
  17   2.0000      -0.854805       -23.2604 
  18   2.0000      -0.834225       -22.7004 
  19   2.0000      -0.831575       -22.6283 
  20   2.0000      -0.785246       -21.3676 
  21   2.0000      -0.771412       -20.9912 
  22   2.0000      -0.735865       -20.0239 
  23   2.0000      -0.728619       -19.8267 
  24   2.0000      -0.703414       -19.1409 
  25   2.0000      -0.687858       -18.7176 
  26   2.0000      -0.676658       -18.4128 
  27   2.0000      -0.664806       -18.0903 
  28   2.0000      -0.656041       -17.8518 
  29   2.0000      -0.648663       -17.6510 
  30   2.0000      -0.612913       -16.6782 
  31   2.0000      -0.608683       -16.5631 
  32   2.0000      -0.588658       -16.0182 
  33   2.0000      -0.585066       -15.9205 
  34   2.0000      -0.577046       -15.7022 
  35   2.0000      -0.576313       -15.6823 
  36   2.0000      -0.565469       -15.3872 
  37   2.0000      -0.560559       -15.2536 
  38   2.0000      -0.553943       -15.0736 
  39   2.0000      -0.541096       -14.7240 
  40   2.0000      -0.534738       -14.5510 
  41   2.0000      -0.533312       -14.5121 
  42   2.0000      -0.523947       -14.2573 
  43   2.0000      -0.515842       -14.0368 
  44   2.0000      -0.514350       -13.9962 
  45   2.0000      -0.509179       -13.8555 
  46   2.0000      -0.491992       -13.3878 
  47   2.0000      -0.490933       -13.3590 
  48   2.0000      -0.485728       -13.2173 
  49   2.0000      -0.485688       -13.2162 
  50   2.0000      -0.481559       -13.1039 
  51   2.0000      -0.475625       -12.9424 
  52   2.0000      -0.472518       -12.8579 
  53   2.0000      -0.469523       -12.7764 
  54   2.0000      -0.464619       -12.6429 
  55   2.0000      -0.461876       -12.5683 
  56   2.0000      -0.441080       -12.0024 
  57   2.0000      -0.435820       -11.8593 
  58   2.0000      -0.357066        -9.7163 
  59   2.0000      -0.356525        -9.7015 
  60   2.0000      -0.305304        -8.3078 
  61   2.0000      -0.305014        -8.2998 
  62   0.0000       0.007390         0.2011 
  63   0.0000       0.007472         0.2033 
  64   0.0000       0.065457         1.7812 
  65   0.0000       0.065593         1.7849 
  66   0.0000       0.074941         2.0393 
  67   0.0000       0.075162         2.0453 
  68   0.0000       0.087388         2.3780 
  69   0.0000       0.088667         2.4128 
  70   0.0000       0.103322         2.8115 
  71   0.0000       0.104775         2.8511 
  72   0.0000       0.107556         2.9268 
  73   0.0000       0.108018         2.9393 
  74   0.0000       0.124070         3.3761 
  75   0.0000       0.125457         3.4139 
  76   0.0000       0.140918         3.8346 
  77   0.0000       0.140953         3.8355 
  78   0.0000       0.155430         4.2295 
  79   0.0000       0.156541         4.2597 
  80   0.0000       0.165182         4.4948 
  81   0.0000       0.167045         4.5455 
  82   0.0000       0.168457         4.5839 
  83   0.0000       0.172282         4.6880 
  84   0.0000       0.202669         5.5149 
  85   0.0000       0.204758         5.5717 
  86   0.0000       0.231736         6.3058 
  87   0.0000       0.233303         6.3485 
  88   0.0000       0.233821         6.3626 
  89   0.0000       0.235421         6.4061 
  90   0.0000       0.236536         6.4365 
  91   0.0000       0.238316         6.4849 
  92   0.0000       0.239002         6.5036 
  93   0.0000       0.240142         6.5346 
  94   0.0000       0.241741         6.5781 
  95   0.0000       0.241965         6.5842 
  96   0.0000       0.243302         6.6206 
  97   0.0000       0.243574         6.6280 
  98   0.0000       0.244660         6.6575 
  99   0.0000       0.245640         6.6842 
 100   0.0000       0.248590         6.7645 
 101   0.0000       0.252088         6.8597 
 102   0.0000       0.257525         7.0076 
 103   0.0000       0.263931         7.1819 
 104   0.0000       0.265547         7.2259 
 105   0.0000       0.266690         7.2570 
 106   0.0000       0.270043         7.3482 
 107   0.0000       0.283128         7.7043 
 108   0.0000       0.298403         8.1200 
 109   0.0000       0.299587         8.1522 
 110   0.0000       0.309875         8.4321 
 111   0.0000       0.309970         8.4347 
 112   0.0000       0.336344         9.1524 
 113   0.0000       0.340551         9.2669 
 114   0.0000       0.350170         9.5286 
 115   0.0000       0.356607         9.7038 
 116   0.0000       0.412307        11.2195 
 117   0.0000       0.421186        11.4611 
 118   0.0000       0.430267        11.7082 
 119   0.0000       0.431732        11.7480 
-------
TIMINGS
-------

Total SCF time: 0 days 0 hours 0 min 0 sec 

Total time                  ....       0.151 sec
Sum of individual times     ....       0.124 sec  ( 81.8%)

Fock matrix formation       ....       0.063 sec  ( 41.5%)
Diagonalization             ....       0.031 sec  ( 20.4%)
Density matrix formation    ....       0.006 sec  (  3.7%)
Population analysis         ....       0.000 sec  (  0.0%)
Initial guess               ....       0.003 sec  (  2.1%)
Orbital Transformation      ....       0.000 sec  (  0.0%)
Orbital Orthonormalization  ....       0.000 sec  (  0.0%)
DIIS solution               ....       0.014 sec  (  9.4%)
SOSCF solution              ....       0.007 sec  (  4.8%)

-------------------------   --------------------
FINAL SINGLE POINT ENERGY       -24.168074082922
-------------------------   --------------------


                            ***************************************
                            *     ORCA property calculations      *
                            ***************************************

                                    ---------------------
                                    Active property flags
                                    ---------------------
   (+) Dipole Moment


------------------------------------------------------------------------------
                       ORCA ELECTRIC PROPERTIES CALCULATION
------------------------------------------------------------------------------

Dipole Moment Calculation                       ... on
Quadrupole Moment Calculation                   ... off
Polarizability Calculation                      ... off
GBWName                                         ... /Users/mattyjones/GoogleDrive/Boise/Code/MorphCT/tests/output_EZ/donor_polymer/chromophores/input_orca/pair/00008-00020.gbw
Electron density file                           ... /Users/mattyjones/GoogleDrive/Boise/Code/MorphCT/tests/output_EZ/donor_polymer/chromophores/input_orca/pair/00008-00020.scfp.tmp

-------------
DIPOLE MOMENT
-------------
                                X             Y             Z
Electronic contribution:     -0.40811       0.82146       1.07793
Nuclear contribution   :     -1.06342      -0.21530      -0.89511
                        -----------------------------------------
Total Dipole Moment    :     -1.47153       0.60616       0.18282
                        -----------------------------------------
Magnitude (a.u.)       :      1.60195
Magnitude (Debye)      :      4.07184


Timings for individual modules:

Sum of individual times         ...        0.231 sec (=   0.004 min)
STO integral calculation        ...        0.041 sec (=   0.001 min)  17.8 %
SCF iterations                  ...        0.190 sec (=   0.003 min)  82.2 %
                             ****ORCA TERMINATED NORMALLY****
TOTAL RUN TIME: 0 days 0 hours 0 minutes 0 seconds 525 msec

