
                                 *****************
                                 * O   R   C   A *
                                 *****************

           --- An Ab Initio, DFT and Semiempirical electronic structure package ---

                  #######################################################
                  #                        -***-                        #
                  #  Department of molecular theory and spectroscopy    #
                  #              Directorship: Frank Neese              #
                  # Max Planck Institute for Chemical Energy Conversion #
                  #                  D-45470 Muelheim/Ruhr              #
                  #                       Germany                       #
                  #                                                     #
                  #                  All rights reserved                #
                  #                        -***-                        #
                  #######################################################


                         Program Version 3.0.3 - RELEASE   -


 With contributions from (in alphabetic order):
   Ute Becker             : Parallelization
   Dmytro Bykov           : SCF Hessian
   Dmitry Ganyushin       : Spin-Orbit,Spin-Spin,Magnetic field MRCI
   Andreas Hansen         : Spin unrestricted coupled pair/coupled cluster methods
   Dimitrios Liakos       : Extrapolation schemes; parallel MDCI
   Robert Izsak           : Overlap fitted RIJCOSX, COSX-SCS-MP3
   Christian Kollmar      : KDIIS, OOCD, Brueckner-CCSD(T), CCSD density
   Simone Kossmann        : Meta GGA functionals, TD-DFT gradient, OOMP2, MP2 Hessian
   Taras Petrenko         : DFT Hessian,TD-DFT gradient, ASA and ECA modules, normal mode analysis, Resonance Raman, ABS, FL, XAS/XES, NRVS
   Christoph Reimann      : Effective Core Potentials
   Michael Roemelt        : Restricted open shell CIS
   Christoph Riplinger    : Improved optimizer, TS searches, QM/MM, DLPNO-CCSD
   Barbara Sandhoefer     : DKH picture change effects
   Igor Schapiro          : Molecular dynamics
   Kantharuban Sivalingam : CASSCF convergence, NEVPT2
   Boris Wezisla          : Elementary symmetry handling
   Frank Wennmohs         : Technical directorship


 We gratefully acknowledge several colleagues who have allowed us to
 interface, adapt or use parts of their codes:
   Stefan Grimme, W. Hujo, H. Kruse, T. Risthaus : VdW corrections, initial TS optimization,
                                                   DFT functionals, gCP
   Ed Valeev                                     : LibInt (2-el integral package), F12 methods
   Garnet Chan, S. Sharma, R. Olivares           : DMRG
   Ulf Ekstrom                                   : XCFun DFT Library
   Mihaly Kallay                                 : mrcc  (arbitrary order and MRCC methods)
   Andreas Klamt, Michael Diedenhofen            : otool_cosmo (COSMO solvation model)
   Frank Weinhold                                : gennbo (NPA and NBO analysis)
   Christopher J. Cramer and Donald G. Truhlar   : smd solvation model


 Your calculation uses the libint2 library for the computation of 2-el integrals
 For citations please refer to: http://libint.valeyev.net

 This ORCA versions uses:
   CBLAS   interface :  Fast vector & matrix operations
   LAPACKE interface :  Fast linear algebra routines
   SCALAPACK package :  Parallel linear algebra routines


leaving
================================================================================
                                        WARNINGS
                       Please study these warnings very carefully!
================================================================================
Now building the actual basis set

WARNING: Direct SCF is incompatible with Method<>HF and Method<>DFT
  ===> : conventional SCF is chosen

WARNING: The NDO methods need Guess=HUECKEL or Guess=HCORE or Guess=MOREAD
  ===> : Guess is set to Hueckel

WARNING: The NDO methods need %rel::SOCType==1
  ===> : %rel::SOCType is set to 1

WARNING: The NDO methods cannot have frozencore=1
  ===> : %method FrozenCore=0 end


INFO   : the flag for use of LIBINT has been found!

================================================================================
                                       INPUT FILE
================================================================================
NAME = /Users/mattyjones/GoogleDrive/Boise/Code/MorphCT/tests/output_EZ/donor_polymer/chromophores/input_orca/pair/00006-00020.inp
|  1> # ================================================================
|  2> # Orca input file made by Matty Jones
|  3> # ================================================================
|  4> ! ZINDO/S 
|  5> ! NOPOP
|  6> ! NOMOPRINT
|  7> * xyz 0   1
|  8>  C  18.22533  3.13281  -0.39311
|  9>  C  17.62309  1.87664  -0.47828
| 10>  C  18.15991  0.90918  0.42733
| 11>  C  19.19123  1.40392  1.23165
| 12>  S  19.38195  2.99001  0.78626
| 13>  H  16.78154  1.61745  -1.20568
| 14>  C  17.54559  -0.59320  0.41975
| 15>  C  17.19306  -1.45958  1.84662
| 16>  C  16.53888  -3.02497  1.67049
| 17>  H  16.99356  -3.44739  0.69193
| 18>  H  16.96446  -3.64236  2.55623
| 19>  H  18.17532  -1.61517  2.42089
| 20>  H  16.45961  -0.83263  2.47018
| 21>  H  18.28822  -1.28424  -0.16631
| 22>  H  16.53906  -0.58402  -0.17147
| 23>  C  14.92532  -3.27542  1.62744
| 24>  C  14.17347  -3.41251  0.11634
| 25>  C  13.50837  -2.00251  -0.50966
| 26>  H  12.55536  -2.26963  -1.11154
| 27>  H  14.27563  -1.49031  -1.20753
| 28>  H  13.22837  -1.28624  0.35472
| 29>  H  14.95908  -3.79874  -0.63417
| 30>  H  13.32831  -4.19206  0.21509
| 31>  H  14.68949  -4.25716  2.19712
| 32>  H  14.40321  -2.40334  2.18292
| 33>  C  -18.68447  -3.39776  -0.66280
| 34>  C  -17.81248  -2.31841  -0.51270
| 35>  C  -18.37016  -1.21218  0.20111
| 36>  C  -19.68917  -1.41907  0.61674
| 37>  S  -20.09033  -2.93844  0.08665
| 38>  H  -16.71932  -2.31750  -0.83889
| 39>  C  -17.28484  -0.00405  0.33377
| 40>  C  -17.39554  1.62800  -0.13413
| 41>  C  -15.83350  2.28777  0.14098
| 42>  H  -15.77452  2.48522  1.28027
| 43>  H  -15.06763  1.45954  -0.12288
| 44>  H  -17.65410  1.70142  -1.24718
| 45>  H  -18.16451  2.17799  0.51070
| 46>  H  -17.03471  0.07882  1.47974
| 47>  H  -16.29344  -0.34869  -0.18659
| 48>  C  -15.37085  3.64320  -0.64094
| 49>  C  -14.58056  3.39724  -2.12874
| 50>  C  -12.89882  3.26622  -2.08063
| 51>  H  -12.53800  3.26599  -0.98209
| 52>  H  -12.42894  4.16181  -2.64404
| 53>  H  -12.57811  2.27922  -2.59406
| 54>  H  -14.99837  2.42945  -2.59344
| 55>  H  -14.84055  4.29126  -2.80877
| 56>  H  -16.29952  4.29696  -0.85377
| 57>  H  -14.64120  4.23856  0.03090
| 58>  H  17.99239  3.99611  -0.96237
| 59>  H  19.73688  0.87578  1.97120
| 60>  H  -18.48915  -4.31728  -1.15264
| 61>  H  -20.30391  -0.74576  1.15742
| 62> *
| 63> 
| 64>                          ****END OF INPUT****
================================================================================

                       ****************************
                       * Single Point Calculation *
                       ****************************

---------------------------------
CARTESIAN COORDINATES (ANGSTROEM)
---------------------------------
  C     18.225330    3.132810   -0.393110
  C     17.623090    1.876640   -0.478280
  C     18.159910    0.909180    0.427330
  C     19.191230    1.403920    1.231650
  S     19.381950    2.990010    0.786260
  H     16.781540    1.617450   -1.205680
  C     17.545590   -0.593200    0.419750
  C     17.193060   -1.459580    1.846620
  C     16.538880   -3.024970    1.670490
  H     16.993560   -3.447390    0.691930
  H     16.964460   -3.642360    2.556230
  H     18.175320   -1.615170    2.420890
  H     16.459610   -0.832630    2.470180
  H     18.288220   -1.284240   -0.166310
  H     16.539060   -0.584020   -0.171470
  C     14.925320   -3.275420    1.627440
  C     14.173470   -3.412510    0.116340
  C     13.508370   -2.002510   -0.509660
  H     12.555360   -2.269630   -1.111540
  H     14.275630   -1.490310   -1.207530
  H     13.228370   -1.286240    0.354720
  H     14.959080   -3.798740   -0.634170
  H     13.328310   -4.192060    0.215090
  H     14.689490   -4.257160    2.197120
  H     14.403210   -2.403340    2.182920
  C    -18.684470   -3.397760   -0.662800
  C    -17.812480   -2.318410   -0.512700
  C    -18.370160   -1.212180    0.201110
  C    -19.689170   -1.419070    0.616740
  S    -20.090330   -2.938440    0.086650
  H    -16.719320   -2.317500   -0.838890
  C    -17.284840   -0.004050    0.333770
  C    -17.395540    1.628000   -0.134130
  C    -15.833500    2.287770    0.140980
  H    -15.774520    2.485220    1.280270
  H    -15.067630    1.459540   -0.122880
  H    -17.654100    1.701420   -1.247180
  H    -18.164510    2.177990    0.510700
  H    -17.034710    0.078820    1.479740
  H    -16.293440   -0.348690   -0.186590
  C    -15.370850    3.643200   -0.640940
  C    -14.580560    3.397240   -2.128740
  C    -12.898820    3.266220   -2.080630
  H    -12.538000    3.265990   -0.982090
  H    -12.428940    4.161810   -2.644040
  H    -12.578110    2.279220   -2.594060
  H    -14.998370    2.429450   -2.593440
  H    -14.840550    4.291260   -2.808770
  H    -16.299520    4.296960   -0.853770
  H    -14.641200    4.238560    0.030900
  H     17.992390    3.996110   -0.962370
  H     19.736880    0.875780    1.971200
  H    -18.489150   -4.317280   -1.152640
  H    -20.303910   -0.745760    1.157420

----------------------------
CARTESIAN COORDINATES (A.U.)
----------------------------
  NO LB      ZA    FRAG    MASS        X           Y           Z
   0 C     4.0000    0    12.011         34.440882400339007          5.920152929609837         -0.742870240505783
   1 C     4.0000    0    12.011         33.302813733446271          3.546335651961978         -0.903818215331856
   2 C     4.0000    0    12.011         34.317256516657878          1.718101206438523          0.807536668808568
   3 C     4.0000    0    12.011         36.266168873093541          2.653024313934724          2.327481192844109
   4 S     6.0000    0    32.060         36.626577441355003          5.650300037685882          1.485816070056923
   5 H     1.0000    0     1.008         31.712514705444843          3.056537535310929         -2.278405005146175
   6 C     4.0000    0    12.011         33.156359958067377         -1.120985542642086          0.793212544713445
   7 C     4.0000    0    12.011         32.490174804076112         -2.758206470548781          3.489606073421661
   8 C     4.0000    0    12.011         31.253953761787507         -5.716364863327769          3.156768609454112
   9 H     1.0000    0     1.008         32.113174440358826         -6.514622976818783          1.307558203844132
  10 H     1.0000    0     1.008         32.058183409861712         -6.883062881149410          4.830574635313520
  11 H     1.0000    0     1.008         34.346377196381603         -3.052228959725588          4.574819100348619
  12 H     1.0000    0     1.008         31.104155171151575         -1.573442670886852          4.667963701489597
  13 H     1.0000    0     1.008         34.559727276901313         -2.426861890227028         -0.314280353332443
  14 H     1.0000    0     1.008         31.254293912491615         -1.103637856732689         -0.324031340183477
  15 C     4.0000    0    12.011         28.204767261137533         -6.189646773568346          3.075415899388802
  16 C     4.0000    0    12.011         26.783976667348842         -6.448709329267611          0.219850738420398
  17 C     4.0000    0    12.011         25.527119815677818         -3.784195480438646         -0.963117821414305
  18 H     1.0000    0     1.008         23.726191912789528         -4.288979125331690         -2.100506186898828
  19 H     1.0000    0     1.008         26.977031089190238         -2.816277754644180         -2.281900998493929
  20 H     1.0000    0     1.008         24.997996498179869         -2.430641342494871          0.670323654224546
  21 H     1.0000    0     1.008         28.268564415418716         -7.178578253972016         -1.198407622348840
  22 H     1.0000    0     1.008         25.186855728003959         -7.921845336965921          0.406461194145122
  23 H     1.0000    0     1.008         27.759113146974887         -8.044866508284196          4.151955083361060
  24 H     1.0000    0     1.008         27.218122349355909         -4.541654406698301          4.125120972259379
  25 C     4.0000    0    12.011        -35.308531257467614         -6.420835868792272         -1.252510481563005
  26 C     4.0000    0    12.011        -33.660708965949617         -4.381159966144369         -0.968862588861426
  27 C     4.0000    0    12.011        -34.714571436314820         -2.290688225016663          0.380042822792903
  28 C     4.0000    0    12.011        -37.207139104218292         -2.681653664863631          1.165469695834593
  29 S     6.0000    0    32.060        -37.965221640102143         -5.552846860959563          0.163744769504276
  30 H     1.0000    0     1.008        -31.594935945392262         -4.379440315362500         -1.585272356485199
  31 C     4.0000    0    12.011        -32.663613868647403         -0.007653390842381          0.630733891718896
  32 C     4.0000    0    12.011        -32.872806551672490          3.076474146023798         -0.253468966342857
  33 C     4.0000    0    12.011        -29.920978741442141          4.323258757401022          0.266413590360218
  34 H     1.0000    0     1.008        -29.809522694063464          4.696385182543773          2.419359677475361
  35 H     1.0000    0     1.008        -28.473694187255870          2.758130881503424         -0.232209547336243
  36 H     1.0000    0     1.008        -33.361414140859168          3.215217838776296         -2.356828639703906
  37 H     1.0000    0     1.008        -34.325949256873912          4.115804622419146          0.965083136593583
  38 H     1.0000    0     1.008        -32.190936670769688          0.148948213875673          2.796303349408633
  39 H     1.0000    0     1.008        -30.790139379477878         -0.658928605637001         -0.352603999328366
  40 C     4.0000    0    12.011        -29.046696945583474          6.884650251101904         -1.211201068275487
  41 C     4.0000    0    12.011        -27.553265279206844          6.419853211202633         -4.022735610323525
  42 C     4.0000    0    12.011        -24.375237250746121          6.172261293136271         -3.931820886020574
  43 H     1.0000    0     1.008        -23.693386267104653          6.171826656125469         -1.855881138862722
  44 H     1.0000    0     1.008        -23.487292734939203          7.864681121414804         -4.996511487133146
  45 H     1.0000    0     1.008        -23.769183182336235          4.307101598955995         -4.902062974959762
  46 H     1.0000    0     1.008        -28.342811755220481          4.590995156054985         -4.900891344756731
  47 H     1.0000    0     1.008        -28.044575176765033          8.109306169450910         -5.307806073173994
  48 H     1.0000    0     1.008        -30.801628914372120          8.120077608414261         -1.613391481357947
  49 H     1.0000    0     1.008        -27.667858271967830          8.009717602193259          0.058392537538167
  50 H     1.0000    0     1.008         34.000689594703388          7.551553501024053         -1.818615739501795
  51 H     1.0000    0     1.008         37.297297938067672          1.654984353565554          3.725028155185572
  52 H     1.0000    0     1.008        -34.939429948990110         -8.158476843455542         -2.178173931002992
  53 H     1.0000    0     1.008        -38.368829347785038         -1.409282161633113          2.187206821923135

--------------------------------
INTERNAL COORDINATES (ANGSTROEM)
--------------------------------
 C      0   0   0   0.000000     0.000     0.000
 C      1   0   0   1.395675     0.000     0.000
 C      2   1   0   1.429785   114.101     0.000
 C      3   2   1   1.398327   113.693     0.000
 S      1   2   3   1.658034   105.480     0.000
 H      2   1   3   1.142146   124.129   180.571
 C      3   2   1   1.623143   118.767   180.238
 C      7   3   2   1.706121   122.978   223.456
 C      8   7   3   1.705702   117.318   179.514
 H      9   8   7   1.158772   105.740    31.811
 H      9   8   7   1.160528   105.591   145.982
 H      8   7   3   1.148403   108.076   297.606
 H      8   7   3   1.148844   107.983    57.042
 H      7   3   2   1.171538   107.962   101.894
 H      7   3   2   1.167359   108.749   345.746
 C      9   8   7   1.633449   121.486   268.469
 C     16   9   8   1.693368   118.328    96.801
 C     17  16   9   1.679980   116.126   265.409
 H     18  17  16   1.158378   109.013   213.948
 H     18  17  16   1.156745   109.502    94.134
 H     18  17  16   1.156977   109.695   333.694
 H     17  16   9   1.153092   107.784    26.604
 H     17  16   9   1.154013   107.668   144.258
 H     16   9   8   1.159295   108.532   217.849
 H     16   9   8   1.158309   108.493   335.051
 C     19  18  17  31.263413   145.381    99.848
 C     26  19  18   1.395669    49.408    60.450
 C     27  26  19   1.429782   114.101   203.700
 C     28  27  26   1.398334   113.693     0.000
 S     26  19  18   1.658039   147.539    14.253
 H     27  26  19   1.140789   124.650    18.697
 C     28  27  26   1.629447   110.763   179.780
 C     32  28  27   1.701403   130.202   124.200
 C     33  32  28   1.717833   105.379   186.084
 H     34  33  32   1.157777   105.629   281.290
 H     34  33  32   1.158509   106.863    36.361
 H     33  32  28   1.145043   110.092   304.254
 H     33  32  28   1.144382   110.473    67.733
 H     32  28  27   1.175874   105.860   246.322
 H     32  28  27   1.171506   108.022   359.372
 C     34  33  32   1.631758   120.007   158.620
 C     41  34  33   1.702529   115.490   269.162
 C     42  41  34   1.687522   116.673   269.203
 H     43  42  41   1.156279   109.760     5.477
 H     43  42  41   1.157713   109.302   245.216
 H     43  42  41   1.157858   109.243   125.614
 H     42  41  34   1.152011   107.789    30.726
 H     42  41  34   1.152956   107.381   148.467
 H     41  34  33   1.155477   109.291    29.945
 H     41  34  33   1.156811   109.150   148.859
 H      1   2   3   1.060002   127.260   180.000
 H      4   3   2   1.060000   127.206   180.000
 H     26  19  18   1.060005    80.825   221.542
 H     29  28  27   1.059994   127.206   180.000

---------------------------
INTERNAL COORDINATES (A.U.)
---------------------------
 C      0   0   0   0.000000     0.000     0.000
 C      1   0   0   2.637444     0.000     0.000
 C      2   1   0   2.701901   114.101     0.000
 C      3   2   1   2.642456   113.693     0.000
 S      1   2   3   3.133229   105.480     0.000
 H      2   1   3   2.158342   124.129   180.571
 C      3   2   1   3.067295   118.767   180.238
 C      7   3   2   3.224102   122.978   223.456
 C      8   7   3   3.223310   117.318   179.514
 H      9   8   7   2.189761   105.740    31.811
 H      9   8   7   2.193079   105.591   145.982
 H      8   7   3   2.170167   108.076   297.606
 H      8   7   3   2.171000   107.983    57.042
 H      7   3   2   2.213886   107.962   101.894
 H      7   3   2   2.205990   108.749   345.746
 C      9   8   7   3.086771   121.486   268.469
 C     16   9   8   3.200002   118.328    96.801
 C     17  16   9   3.174703   116.126   265.409
 H     18  17  16   2.189018   109.013   213.948
 H     18  17  16   2.185931   109.502    94.134
 H     18  17  16   2.186369   109.695   333.694
 H     17  16   9   2.179029   107.784    26.604
 H     17  16   9   2.180768   107.668   144.258
 H     16   9   8   2.190750   108.532   217.849
 H     16   9   8   2.188887   108.493   335.051
 C     19  18  17  59.079290   145.381    99.848
 C     26  19  18   2.637433    49.408    60.450
 C     27  26  19   2.701896   114.101   203.700
 C     28  27  26   2.642469   113.693     0.000
 S     26  19  18   3.133239   147.539    14.253
 H     27  26  19   2.155779   124.650    18.697
 C     28  27  26   3.079208   110.763   179.780
 C     32  28  27   3.215186   130.202   124.200
 C     33  32  28   3.246234   105.379   186.084
 H     34  33  32   2.187881   105.629   281.290
 H     34  33  32   2.189265   106.863    36.361
 H     33  32  28   2.163818   110.092   304.254
 H     33  32  28   2.162568   110.473    67.733
 H     32  28  27   2.222080   105.860   246.322
 H     32  28  27   2.213825   108.022   359.372
 C     34  33  32   3.083576   120.007   158.620
 C     41  34  33   3.217313   115.490   269.162
 C     42  41  34   3.188954   116.673   269.203
 H     43  42  41   2.185051   109.760     5.477
 H     43  42  41   2.187761   109.302   245.216
 H     43  42  41   2.188034   109.243   125.614
 H     42  41  34   2.176985   107.789    30.726
 H     42  41  34   2.178771   107.381   148.467
 H     41  34  33   2.183535   109.291    29.945
 H     41  34  33   2.186056   109.150   148.859
 H      1   2   3   2.003114   127.260   180.000
 H      4   3   2   2.003110   127.206   180.000
 H     26  19  18   2.003119    80.825   221.542
 H     29  28  27   2.003098   127.206   180.000

----------------------------
SLATER BASIS SET DIM= 120
----------------------------
  0 C     2 shells
 l=0 nsto= 1
    2       1.625000000000        1.000000000000
 l=1 nsto= 1
    2       1.625000000000        1.000000000000
  1 C     2 shells
 l=0 nsto= 1
    2       1.625000000000        1.000000000000
 l=1 nsto= 1
    2       1.625000000000        1.000000000000
  2 C     2 shells
 l=0 nsto= 1
    2       1.625000000000        1.000000000000
 l=1 nsto= 1
    2       1.625000000000        1.000000000000
  3 C     2 shells
 l=0 nsto= 1
    2       1.625000000000        1.000000000000
 l=1 nsto= 1
    2       1.625000000000        1.000000000000
  4 S     2 shells
 l=0 nsto= 1
    3       1.925000000000        1.000000000000
 l=1 nsto= 1
    3       1.925000000000        1.000000000000
  5 H     1 shells
 l=0 nsto= 1
    1       1.200000000000        1.000000000000
  6 C     2 shells
 l=0 nsto= 1
    2       1.625000000000        1.000000000000
 l=1 nsto= 1
    2       1.625000000000        1.000000000000
  7 C     2 shells
 l=0 nsto= 1
    2       1.625000000000        1.000000000000
 l=1 nsto= 1
    2       1.625000000000        1.000000000000
  8 C     2 shells
 l=0 nsto= 1
    2       1.625000000000        1.000000000000
 l=1 nsto= 1
    2       1.625000000000        1.000000000000
  9 H     1 shells
 l=0 nsto= 1
    1       1.200000000000        1.000000000000
 10 H     1 shells
 l=0 nsto= 1
    1       1.200000000000        1.000000000000
 11 H     1 shells
 l=0 nsto= 1
    1       1.200000000000        1.000000000000
 12 H     1 shells
 l=0 nsto= 1
    1       1.200000000000        1.000000000000
 13 H     1 shells
 l=0 nsto= 1
    1       1.200000000000        1.000000000000
 14 H     1 shells
 l=0 nsto= 1
    1       1.200000000000        1.000000000000
 15 C     2 shells
 l=0 nsto= 1
    2       1.625000000000        1.000000000000
 l=1 nsto= 1
    2       1.625000000000        1.000000000000
 16 C     2 shells
 l=0 nsto= 1
    2       1.625000000000        1.000000000000
 l=1 nsto= 1
    2       1.625000000000        1.000000000000
 17 C     2 shells
 l=0 nsto= 1
    2       1.625000000000        1.000000000000
 l=1 nsto= 1
    2       1.625000000000        1.000000000000
 18 H     1 shells
 l=0 nsto= 1
    1       1.200000000000        1.000000000000
 19 H     1 shells
 l=0 nsto= 1
    1       1.200000000000        1.000000000000
 20 H     1 shells
 l=0 nsto= 1
    1       1.200000000000        1.000000000000
 21 H     1 shells
 l=0 nsto= 1
    1       1.200000000000        1.000000000000
 22 H     1 shells
 l=0 nsto= 1
    1       1.200000000000        1.000000000000
 23 H     1 shells
 l=0 nsto= 1
    1       1.200000000000        1.000000000000
 24 H     1 shells
 l=0 nsto= 1
    1       1.200000000000        1.000000000000
 25 C     2 shells
 l=0 nsto= 1
    2       1.625000000000        1.000000000000
 l=1 nsto= 1
    2       1.625000000000        1.000000000000
 26 C     2 shells
 l=0 nsto= 1
    2       1.625000000000        1.000000000000
 l=1 nsto= 1
    2       1.625000000000        1.000000000000
 27 C     2 shells
 l=0 nsto= 1
    2       1.625000000000        1.000000000000
 l=1 nsto= 1
    2       1.625000000000        1.000000000000
 28 C     2 shells
 l=0 nsto= 1
    2       1.625000000000        1.000000000000
 l=1 nsto= 1
    2       1.625000000000        1.000000000000
 29 S     2 shells
 l=0 nsto= 1
    3       1.925000000000        1.000000000000
 l=1 nsto= 1
    3       1.925000000000        1.000000000000
 30 H     1 shells
 l=0 nsto= 1
    1       1.200000000000        1.000000000000
 31 C     2 shells
 l=0 nsto= 1
    2       1.625000000000        1.000000000000
 l=1 nsto= 1
    2       1.625000000000        1.000000000000
 32 C     2 shells
 l=0 nsto= 1
    2       1.625000000000        1.000000000000
 l=1 nsto= 1
    2       1.625000000000        1.000000000000
 33 C     2 shells
 l=0 nsto= 1
    2       1.625000000000        1.000000000000
 l=1 nsto= 1
    2       1.625000000000        1.000000000000
 34 H     1 shells
 l=0 nsto= 1
    1       1.200000000000        1.000000000000
 35 H     1 shells
 l=0 nsto= 1
    1       1.200000000000        1.000000000000
 36 H     1 shells
 l=0 nsto= 1
    1       1.200000000000        1.000000000000
 37 H     1 shells
 l=0 nsto= 1
    1       1.200000000000        1.000000000000
 38 H     1 shells
 l=0 nsto= 1
    1       1.200000000000        1.000000000000
 39 H     1 shells
 l=0 nsto= 1
    1       1.200000000000        1.000000000000
 40 C     2 shells
 l=0 nsto= 1
    2       1.625000000000        1.000000000000
 l=1 nsto= 1
    2       1.625000000000        1.000000000000
 41 C     2 shells
 l=0 nsto= 1
    2       1.625000000000        1.000000000000
 l=1 nsto= 1
    2       1.625000000000        1.000000000000
 42 C     2 shells
 l=0 nsto= 1
    2       1.625000000000        1.000000000000
 l=1 nsto= 1
    2       1.625000000000        1.000000000000
 43 H     1 shells
 l=0 nsto= 1
    1       1.200000000000        1.000000000000
 44 H     1 shells
 l=0 nsto= 1
    1       1.200000000000        1.000000000000
 45 H     1 shells
 l=0 nsto= 1
    1       1.200000000000        1.000000000000
 46 H     1 shells
 l=0 nsto= 1
    1       1.200000000000        1.000000000000
 47 H     1 shells
 l=0 nsto= 1
    1       1.200000000000        1.000000000000
 48 H     1 shells
 l=0 nsto= 1
    1       1.200000000000        1.000000000000
 49 H     1 shells
 l=0 nsto= 1
    1       1.200000000000        1.000000000000
 50 H     1 shells
 l=0 nsto= 1
    1       1.200000000000        1.000000000000
 51 H     1 shells
 l=0 nsto= 1
    1       1.200000000000        1.000000000000
 52 H     1 shells
 l=0 nsto= 1
    1       1.200000000000        1.000000000000
 53 H     1 shells
 l=0 nsto= 1
    1       1.200000000000        1.000000000000
------------------------------------------------------------------------------
                           ORCA NDO INTEGRAL CALCULATION
------------------------------------------------------------------------------

--------------
NDO PARAMETERS
--------------

Gamma integral treatment              ... Mataga-Nishimoto
Nuclear repulsuion treatment          ... Direct (ZA*ZB/RAB)
Interaction factors:
s-s (sigma) =    1.0000
s-p (sigma) =    1.0000
s-d (sigma) =    1.0000
p-p (sigma) =    1.2670  p-p(pi) =    0.5850
p-d (sigma) =    1.0000  p-d(pi) =    1.0000
d-d (sigma) =    1.0000  d-d(pi) =    1.0000 d-d (delta) =    1.0000

fGamma parameter for Mataga-Nishimoto gamma integrals:    1.2000

--------------------------
Parameters for Element H :
--------------------------
 One-electron parameters (in eV)
  U(s)  =   -13.060000 Beta(s) =    12.000000 Neff(s) =     1.000000
 One-center electron repulsion parameters (in eV)
  G(s,s)=    12.850000
--------------------------
Parameters for Element C :
--------------------------
 One-electron parameters (in eV)
  U(s)  =   -50.870766 Beta(s) =    17.000000 Neff(s) =     2.000000
  U(p)  =   -41.599980 Beta(p) =    17.000000 Neff(p) =     2.000000 
 One-center electron repulsion parameters (in eV)
  G(s,s)=    11.110000
  G(s,p)=    11.110000 G(p,p)  =    11.110000
 Slater-Condon parameters (in eV)
 F2(p,p)=     4.5098 G1(s,p)=    6.8977
--------------------------
Parameters for Element S :
--------------------------
 One-electron parameters (in eV)
  U(s)  =   -69.509597 Beta(s) =    15.000000 Neff(s) =     2.000000
  U(p)  =   -60.725746 Beta(p) =    15.000000 Neff(p) =     4.000000 
 One-center electron repulsion parameters (in eV)
  G(s,s)=    10.090000
  G(s,p)=    10.090000 G(p,p)  =    10.090000
 Slater-Condon parameters (in eV)
 F2(p,p)=     4.5377 G1(s,p)=    3.0756

 Number of atoms                    ....   54
 Number of basis functions          ....  120

 Overlap integrals                  .... done
 One electron matrix                .... done
 Nuclear repulsion                  .... done
 Integral list                      .... done
 Electron-electron repulsion        .... done
-------------------------------------------------------------------------------
                                 ORCA SCF
-------------------------------------------------------------------------------

------------
SCF SETTINGS
------------
Hamiltonian:
 ZDO-Hamiltonian        Method          .... INDO


General Settings:
 Integral files         IntName         .... /Users/mattyjones/GoogleDrive/Boise/Code/MorphCT/tests/output_EZ/donor_polymer/chromophores/input_orca/pair/00006-00020
 Hartree-Fock type      HFTyp           .... RHF
 Total Charge           Charge          ....    0
 Multiplicity           Mult            ....    1
 Number of Electrons    NEL             ....  124
 Basis Dimension        Dim             ....  120
 Nuclear Repulsion      ENuc            ....    646.1826782893 Eh

Convergence Acceleration:
 DIIS                   CNVDIIS         .... on
   Start iteration      DIISMaxIt       ....    12
   Startup error        DIISStart       ....  0.200000
   # of expansion vecs  DIISMaxEq       ....     5
   Bias factor          DIISBfac        ....   1.050
   Max. coefficient     DIISMaxC        ....  10.000
 Newton-Raphson         CNVNR           .... off
 SOSCF                  CNVSOSCF        .... on
   Start iteration      SOSCFMaxIt      ....   150
   Startup grad/error   SOSCFStart      ....  0.003300
 Level Shifting         CNVShift        .... on
   Level shift para.    LevelShift      ....    0.2500
   Turn off err/grad.   ShiftErr        ....    0.0010
 Zerner damping         CNVZerner       .... off
 Static damping         CNVDamp         .... on
   Fraction old density DampFac         ....    0.7000
   Max. Damping (<1)    DampMax         ....    0.9800
   Min. Damping (>=0)   DampMin         ....    0.0000
   Turn off err/grad.   DampErr         ....    0.1000
 Fernandez-Rico         CNVRico         .... off

SCF Procedure:
 Maximum # iterations   MaxIter         ....   125
 SCF integral mode      SCFMode         .... Conventional
 Integral Buffer length BufferLength    .... 1048576
 Integral index format  IndFormat       ....     0
 Integral value format  ValFormat       ....     0
 Integral Storage       Thresh          ....  1.000e-08 Eh

Convergence Tolerance:
 Convergence Check Mode ConvCheckMode   .... Total+1el-Energy
 Energy Change          TolE            ....  1.000e-06 Eh
 1-El. energy change                    ....  1.000e-03 Eh
 Orbital Gradient       TolG            ....  5.000e-05
 Orbital Rotation angle TolX            ....  5.000e-05
 DIIS Error             TolErr          ....  1.000e-06


Diagonalization of the overlap matrix:
Smallest eigenvalue                        ... 1.697e-01
Time for diagonalization                   ...    0.005 sec
Threshold for overlap eigenvalues          ... 1.000e-08
Number of eigenvalues below threshold      ... 0
Time for construction of square roots      ...    0.001 sec
Total time needed                          ...    0.006 sec

-------------------------------
INITIAL GUESS: EXTENDED HUECKEL
-------------------------------
EHT matrix was read from disk
EHT matrix was diagonalized
Initial density was built
                      ------------------
                      INITIAL GUESS DONE
                      ------------------

 InCore treatment chosen:
   Memory dedicated               ...    1024 MB
   Memory needed                  ...      0 MB
   Number of tiny    integrals    ...       0
   Number of small   integrals    ...       0
   Number of regular integrals    ...    7392

--------------
SCF ITERATIONS
--------------
ITER       Energy         Delta-E        Max-DP      RMS-DP      [F,P]     Damp
  0    -23.5818676667   0.000000000000 0.04296361  0.00144984  0.1044283 0.7000
  1    -23.6237493877  -0.041881720996 0.04117069  0.00136548  0.0736430 0.7000
                               ***Turning on DIIS***
  2    -23.6547306643  -0.030981276605 0.10631473  0.00350371  0.0483360 0.0000
  3    -23.7353017224  -0.080571058135 0.01761282  0.00072489  0.0209607 0.0000
  4    -23.7212599256   0.014041796785 0.01282418  0.00049852  0.0076697 0.0000
  5    -23.7381871214  -0.016927195791 0.00898536  0.00033638  0.0044816 0.0000
  6    -23.7402647389  -0.002077617430 0.00675236  0.00023785  0.0024464 0.0000
                      *** Initiating the SOSCF procedure ***
                           *** Shutting down DIIS ***
                      *** Re-Reading the Fockian *** 
                      *** Removing any level shift *** 
ITER      Energy       Delta-E        Grad      Rot      Max-DP    RMS-DP
  7    -23.73631880   0.0039459353  0.003014  0.003014  0.004029  0.000133
  8    -23.73417450   0.0021443072  0.000804  0.002209  0.001992  0.000061
  9    -23.73418872  -0.0000142247  0.000351  0.002135  0.002233  0.000065
 10    -23.73419389  -0.0000051699  0.000034  0.000097  0.000149  0.000005
                 **** Energy Check signals convergence ****
              ***Rediagonalizing the Fockian in SOSCF/NRSCF***

               *****************************************************
               *                     SUCCESS                       *
               *           SCF CONVERGED AFTER  11 CYCLES          *
               *****************************************************


----------------
TOTAL SCF ENERGY
----------------

Total Energy       :          -23.73419394 Eh            -645.84025 eV

Components:
Nuclear Repulsion  :          646.18267829 Eh           17583.52461 eV
Electronic Energy  :         -669.91687223 Eh          -18229.36486 eV

One Electron Energy:        -1249.46038818 Eh          -33999.54567 eV
Two Electron Energy:          579.54351594 Eh           15770.18081 eV


---------------
SCF CONVERGENCE
---------------

  Last Energy change         ...   -5.3139e-08  Tolerance :   1.0000e-06
  Last MAX-Density change    ...    6.8167e-05  Tolerance :   1.0000e-05
  Last RMS-Density change    ...    1.5605e-06  Tolerance :   1.0000e-06
  Last Orbital Gradient      ...    1.4151e-05  Tolerance :   5.0000e-05
  Last Orbital Rotation      ...    2.7889e-05  Tolerance :   5.0000e-05

             **** THE GBW FILE WAS UPDATED (/Users/mattyjones/GoogleDrive/Boise/Code/MorphCT/tests/output_EZ/donor_polymer/chromophores/input_orca/pair/00006-00020.gbw) ****
             **** DENSITY FILE WAS UPDATED (/Users/mattyjones/GoogleDrive/Boise/Code/MorphCT/tests/output_EZ/donor_polymer/chromophores/input_orca/pair/00006-00020.scfp.tmp) ****
             **** ENERGY FILE WAS UPDATED (/Users/mattyjones/GoogleDrive/Boise/Code/MorphCT/tests/output_EZ/donor_polymer/chromophores/input_orca/pair/00006-00020.en.tmp) ****
----------------
ORBITAL ENERGIES
----------------

  NO   OCC          E(Eh)            E(eV) 
   0   2.0000      -1.557390       -42.3787 
   1   2.0000      -1.555789       -42.3352 
   2   2.0000      -1.399440       -38.0807 
   3   2.0000      -1.394569       -37.9481 
   4   2.0000      -1.292056       -35.1586 
   5   2.0000      -1.283277       -34.9198 
   6   2.0000      -1.182505       -32.1776 
   7   2.0000      -1.169549       -31.8250 
   8   2.0000      -1.115068       -30.3425 
   9   2.0000      -1.110337       -30.2138 
  10   2.0000      -1.062535       -28.9130 
  11   2.0000      -1.059853       -28.8401 
  12   2.0000      -0.953581       -25.9483 
  13   2.0000      -0.949876       -25.8474 
  14   2.0000      -0.887637       -24.1538 
  15   2.0000      -0.886539       -24.1240 
  16   2.0000      -0.857552       -23.3352 
  17   2.0000      -0.854803       -23.2604 
  18   2.0000      -0.838600       -22.8195 
  19   2.0000      -0.834222       -22.7003 
  20   2.0000      -0.788189       -21.4477 
  21   2.0000      -0.785242       -21.3675 
  22   2.0000      -0.728615       -19.8266 
  23   2.0000      -0.721212       -19.6252 
  24   2.0000      -0.703410       -19.1408 
  25   2.0000      -0.699947       -19.0465 
  26   2.0000      -0.664803       -18.0902 
  27   2.0000      -0.661995       -18.0138 
  28   2.0000      -0.656039       -17.8517 
  29   2.0000      -0.645528       -17.5657 
  30   2.0000      -0.619761       -16.8646 
  31   2.0000      -0.608681       -16.5631 
  32   2.0000      -0.586786       -15.9672 
  33   2.0000      -0.585064       -15.9204 
  34   2.0000      -0.576307       -15.6821 
  35   2.0000      -0.575041       -15.6477 
  36   2.0000      -0.573611       -15.6087 
  37   2.0000      -0.560555       -15.2535 
  38   2.0000      -0.553484       -15.0611 
  39   2.0000      -0.541093       -14.7239 
  40   2.0000      -0.533651       -14.5214 
  41   2.0000      -0.533308       -14.5121 
  42   2.0000      -0.523944       -14.2572 
  43   2.0000      -0.514347       -13.9961 
  44   2.0000      -0.511988       -13.9319 
  45   2.0000      -0.509489       -13.8639 
  46   2.0000      -0.494661       -13.4604 
  47   2.0000      -0.490929       -13.3589 
  48   2.0000      -0.488413       -13.2904 
  49   2.0000      -0.485725       -13.2172 
  50   2.0000      -0.478781       -13.0283 
  51   2.0000      -0.475625       -12.9424 
  52   2.0000      -0.472513       -12.8577 
  53   2.0000      -0.469633       -12.7794 
  54   2.0000      -0.462448       -12.5838 
  55   2.0000      -0.461872       -12.5682 
  56   2.0000      -0.438318       -11.9272 
  57   2.0000      -0.435816       -11.8592 
  58   2.0000      -0.357680        -9.7330 
  59   2.0000      -0.356520        -9.7014 
  60   2.0000      -0.305300        -8.3076 
  61   2.0000      -0.305192        -8.3047 
  62   0.0000       0.007262         0.1976 
  63   0.0000       0.007396         0.2012 
  64   0.0000       0.065461         1.7813 
  65   0.0000       0.065987         1.7956 
  66   0.0000       0.074947         2.0394 
  67   0.0000       0.075218         2.0468 
  68   0.0000       0.085469         2.3257 
  69   0.0000       0.087391         2.3780 
  70   0.0000       0.103326         2.8117 
  71   0.0000       0.104293         2.8380 
  72   0.0000       0.107309         2.9200 
  73   0.0000       0.107561         2.9269 
  74   0.0000       0.125461         3.4140 
  75   0.0000       0.125461         3.4140 
  76   0.0000       0.140921         3.8347 
  77   0.0000       0.142368         3.8740 
  78   0.0000       0.156543         4.2597 
  79   0.0000       0.158841         4.3223 
  80   0.0000       0.166028         4.5178 
  81   0.0000       0.167049         4.5456 
  82   0.0000       0.168157         4.5758 
  83   0.0000       0.168464         4.5841 
  84   0.0000       0.202675         5.5151 
  85   0.0000       0.203558         5.5391 
  86   0.0000       0.231415         6.2971 
  87   0.0000       0.231740         6.3060 
  88   0.0000       0.233760         6.3609 
  89   0.0000       0.235422         6.4062 
  90   0.0000       0.236539         6.4365 
  91   0.0000       0.236686         6.4405 
  92   0.0000       0.239005         6.5037 
  93   0.0000       0.239504         6.5172 
  94   0.0000       0.241743         6.5782 
  95   0.0000       0.242024         6.5858 
  96   0.0000       0.244145         6.6435 
  97   0.0000       0.244666         6.6577 
  98   0.0000       0.244979         6.6662 
  99   0.0000       0.245640         6.6842 
 100   0.0000       0.248179         6.7533 
 101   0.0000       0.252092         6.8598 
 102   0.0000       0.257644         7.0109 
 103   0.0000       0.263934         7.1820 
 104   0.0000       0.265550         7.2260 
 105   0.0000       0.266357         7.2479 
 106   0.0000       0.270046         7.3483 
 107   0.0000       0.276825         7.5328 
 108   0.0000       0.299588         8.1522 
 109   0.0000       0.303259         8.2521 
 110   0.0000       0.309975         8.4348 
 111   0.0000       0.310071         8.4375 
 112   0.0000       0.336349         9.1525 
 113   0.0000       0.341993         9.3061 
 114   0.0000       0.350175         9.5287 
 115   0.0000       0.354977         9.6594 
 116   0.0000       0.414363        11.2754 
 117   0.0000       0.421190        11.4612 
 118   0.0000       0.428883        11.6705 
 119   0.0000       0.430274        11.7083 
-------
TIMINGS
-------

Total SCF time: 0 days 0 hours 0 min 0 sec 

Total time                  ....       0.152 sec
Sum of individual times     ....       0.125 sec  ( 82.6%)

Fock matrix formation       ....       0.050 sec  ( 32.8%)
Diagonalization             ....       0.027 sec  ( 18.0%)
Density matrix formation    ....       0.005 sec  (  3.4%)
Population analysis         ....       0.000 sec  (  0.0%)
Initial guess               ....       0.003 sec  (  2.2%)
Orbital Transformation      ....       0.000 sec  (  0.0%)
Orbital Orthonormalization  ....       0.000 sec  (  0.0%)
DIIS solution               ....       0.034 sec  ( 22.6%)
SOSCF solution              ....       0.005 sec  (  3.6%)

-------------------------   --------------------
FINAL SINGLE POINT ENERGY       -23.734193944174
-------------------------   --------------------


                            ***************************************
                            *     ORCA property calculations      *
                            ***************************************

                                    ---------------------
                                    Active property flags
                                    ---------------------
   (+) Dipole Moment


------------------------------------------------------------------------------
                       ORCA ELECTRIC PROPERTIES CALCULATION
------------------------------------------------------------------------------

Dipole Moment Calculation                       ... on
Quadrupole Moment Calculation                   ... off
Polarizability Calculation                      ... off
GBWName                                         ... /Users/mattyjones/GoogleDrive/Boise/Code/MorphCT/tests/output_EZ/donor_polymer/chromophores/input_orca/pair/00006-00020.gbw
Electron density file                           ... /Users/mattyjones/GoogleDrive/Boise/Code/MorphCT/tests/output_EZ/donor_polymer/chromophores/input_orca/pair/00006-00020.scfp.tmp

-------------
DIPOLE MOMENT
-------------
                                X             Y             Z
Electronic contribution:    -20.23853      -0.51822      23.98540
Nuclear contribution   :     10.28454       0.51643     -12.79443
                        -----------------------------------------
Total Dipole Moment    :     -9.95399      -0.00179      11.19097
                        -----------------------------------------
Magnitude (a.u.)       :     14.97730
Magnitude (Debye)      :     38.06928


Timings for individual modules:

Sum of individual times         ...        0.250 sec (=   0.004 min)
STO integral calculation        ...        0.048 sec (=   0.001 min)  19.0 %
SCF iterations                  ...        0.202 sec (=   0.003 min)  81.0 %
                             ****ORCA TERMINATED NORMALLY****
TOTAL RUN TIME: 0 days 0 hours 0 minutes 0 seconds 571 msec

