
                                 *****************
                                 * O   R   C   A *
                                 *****************

           --- An Ab Initio, DFT and Semiempirical electronic structure package ---

                  #######################################################
                  #                        -***-                        #
                  #  Department of molecular theory and spectroscopy    #
                  #              Directorship: Frank Neese              #
                  # Max Planck Institute for Chemical Energy Conversion #
                  #                  D-45470 Muelheim/Ruhr              #
                  #                       Germany                       #
                  #                                                     #
                  #                  All rights reserved                #
                  #                        -***-                        #
                  #######################################################


                         Program Version 3.0.3 - RELEASE   -


 With contributions from (in alphabetic order):
   Ute Becker             : Parallelization
   Dmytro Bykov           : SCF Hessian
   Dmitry Ganyushin       : Spin-Orbit,Spin-Spin,Magnetic field MRCI
   Andreas Hansen         : Spin unrestricted coupled pair/coupled cluster methods
   Dimitrios Liakos       : Extrapolation schemes; parallel MDCI
   Robert Izsak           : Overlap fitted RIJCOSX, COSX-SCS-MP3
   Christian Kollmar      : KDIIS, OOCD, Brueckner-CCSD(T), CCSD density
   Simone Kossmann        : Meta GGA functionals, TD-DFT gradient, OOMP2, MP2 Hessian
   Taras Petrenko         : DFT Hessian,TD-DFT gradient, ASA and ECA modules, normal mode analysis, Resonance Raman, ABS, FL, XAS/XES, NRVS
   Christoph Reimann      : Effective Core Potentials
   Michael Roemelt        : Restricted open shell CIS
   Christoph Riplinger    : Improved optimizer, TS searches, QM/MM, DLPNO-CCSD
   Barbara Sandhoefer     : DKH picture change effects
   Igor Schapiro          : Molecular dynamics
   Kantharuban Sivalingam : CASSCF convergence, NEVPT2
   Boris Wezisla          : Elementary symmetry handling
   Frank Wennmohs         : Technical directorship


 We gratefully acknowledge several colleagues who have allowed us to
 interface, adapt or use parts of their codes:
   Stefan Grimme, W. Hujo, H. Kruse, T. Risthaus : VdW corrections, initial TS optimization,
                                                   DFT functionals, gCP
   Ed Valeev                                     : LibInt (2-el integral package), F12 methods
   Garnet Chan, S. Sharma, R. Olivares           : DMRG
   Ulf Ekstrom                                   : XCFun DFT Library
   Mihaly Kallay                                 : mrcc  (arbitrary order and MRCC methods)
   Andreas Klamt, Michael Diedenhofen            : otool_cosmo (COSMO solvation model)
   Frank Weinhold                                : gennbo (NPA and NBO analysis)
   Christopher J. Cramer and Donald G. Truhlar   : smd solvation model


 Your calculation uses the libint2 library for the computation of 2-el integrals
 For citations please refer to: http://libint.valeyev.net

 This ORCA versions uses:
   CBLAS   interface :  Fast vector & matrix operations
   LAPACKE interface :  Fast linear algebra routines
   SCALAPACK package :  Parallel linear algebra routines


leaving
================================================================================
                                        WARNINGS
                       Please study these warnings very carefully!
================================================================================
Now building the actual basis set

WARNING: Direct SCF is incompatible with Method<>HF and Method<>DFT
  ===> : conventional SCF is chosen

WARNING: The NDO methods need Guess=HUECKEL or Guess=HCORE or Guess=MOREAD
  ===> : Guess is set to Hueckel

WARNING: The NDO methods need %rel::SOCType==1
  ===> : %rel::SOCType is set to 1

WARNING: The NDO methods cannot have frozencore=1
  ===> : %method FrozenCore=0 end


INFO   : the flag for use of LIBINT has been found!

================================================================================
                                       INPUT FILE
================================================================================
NAME = /Users/mattyjones/GoogleDrive/Boise/Code/MorphCT/tests/output_EZ/donor_polymer/chromophores/input_orca/pair/00008-00019.inp
|  1> # ================================================================
|  2> # Orca input file made by Matty Jones
|  3> # ================================================================
|  4> ! ZINDO/S 
|  5> ! NOPOP
|  6> ! NOMOPRINT
|  7> * xyz 0   1
|  8>  C  22.80466  4.77847  2.43539
|  9>  C  22.12004  3.70241  3.00221
| 10>  C  22.87108  2.98484  3.98471
| 11>  C  24.15522  3.49688  4.19475
| 12>  S  24.29188  4.79226  3.16823
| 13>  H  21.07235  3.36763  2.69125
| 14>  C  22.28982  1.72058  4.79419
| 15>  C  21.46707  0.39934  4.10088
| 16>  C  19.77414  0.38196  3.93683
| 17>  H  19.30942  0.62543  4.96417
| 18>  H  19.47716  1.19705  3.17748
| 19>  H  21.73553  -0.51961  4.74730
| 20>  H  21.90121  0.26023  3.04176
| 21>  H  21.55551  2.12099  5.61506
| 22>  H  23.16845  1.19522  5.34885
| 23>  C  19.26130  -1.08126  3.41955
| 24>  C  17.59621  -1.37146  3.31739
| 25>  C  16.91656  -2.06941  4.69296
| 26>  H  16.01767  -2.72865  4.37985
| 27>  H  16.55419  -1.23341  5.40616
| 28>  H  17.70507  -2.72380  5.22997
| 29>  H  17.41624  -2.08831  2.43269
| 30>  H  17.06361  -0.37009  3.11784
| 31>  H  19.69068  -1.26366  2.35896
| 32>  H  19.69238  -1.88954  4.12943
| 33>  C  -15.84647  0.30295  -5.59192
| 34>  C  -16.87769  -0.53468  -5.16431
| 35>  C  -17.95395  0.14820  -4.51652
| 36>  C  -17.77164  1.53202  -4.43220
| 37>  S  -16.30901  1.83359  -5.15343
| 38>  H  -16.86108  -1.66465  -5.32621
| 39>  C  -19.12896  -0.85135  -4.03707
| 40>  C  -20.74933  -0.67289  -4.46223
| 41>  C  -21.79993  0.17102  -3.47337
| 42>  H  -21.22209  1.02525  -2.96050
| 43>  H  -22.64341  0.61755  -4.12442
| 44>  H  -20.75751  -0.14278  -5.49227
| 45>  H  -21.17647  -1.73813  -4.60176
| 46>  H  -19.13245  -0.85044  -2.86490
| 47>  H  -18.86324  -1.94493  -4.36083
| 48>  C  -22.42890  -0.82134  -2.33894
| 49>  C  -23.76640  -1.76041  -2.78446
| 50>  C  -23.41450  -3.32684  -3.29998
| 51>  H  -22.67903  -3.81789  -2.55345
| 52>  H  -22.94083  -3.29473  -4.35388
| 53>  H  -24.39514  -3.94118  -3.33502
| 54>  H  -24.31299  -1.22060  -3.64326
| 55>  H  -24.46450  -1.83634  -1.87083
| 56>  H  -21.60488  -1.55521  -1.98527
| 57>  H  -22.75797  -0.17987  -1.43283
| 58>  H  22.44885  5.44613  1.69293
| 59>  H  24.88791  3.13322  4.86893
| 60>  H  -14.95545  0.02019  -6.09165
| 61>  H  -18.43038  2.24004  -3.99818
| 62> *
| 63> 
| 64>                          ****END OF INPUT****
================================================================================

                       ****************************
                       * Single Point Calculation *
                       ****************************

---------------------------------
CARTESIAN COORDINATES (ANGSTROEM)
---------------------------------
  C     22.804660    4.778470    2.435390
  C     22.120040    3.702410    3.002210
  C     22.871080    2.984840    3.984710
  C     24.155220    3.496880    4.194750
  S     24.291880    4.792260    3.168230
  H     21.072350    3.367630    2.691250
  C     22.289820    1.720580    4.794190
  C     21.467070    0.399340    4.100880
  C     19.774140    0.381960    3.936830
  H     19.309420    0.625430    4.964170
  H     19.477160    1.197050    3.177480
  H     21.735530   -0.519610    4.747300
  H     21.901210    0.260230    3.041760
  H     21.555510    2.120990    5.615060
  H     23.168450    1.195220    5.348850
  C     19.261300   -1.081260    3.419550
  C     17.596210   -1.371460    3.317390
  C     16.916560   -2.069410    4.692960
  H     16.017670   -2.728650    4.379850
  H     16.554190   -1.233410    5.406160
  H     17.705070   -2.723800    5.229970
  H     17.416240   -2.088310    2.432690
  H     17.063610   -0.370090    3.117840
  H     19.690680   -1.263660    2.358960
  H     19.692380   -1.889540    4.129430
  C    -15.846470    0.302950   -5.591920
  C    -16.877690   -0.534680   -5.164310
  C    -17.953950    0.148200   -4.516520
  C    -17.771640    1.532020   -4.432200
  S    -16.309010    1.833590   -5.153430
  H    -16.861080   -1.664650   -5.326210
  C    -19.128960   -0.851350   -4.037070
  C    -20.749330   -0.672890   -4.462230
  C    -21.799930    0.171020   -3.473370
  H    -21.222090    1.025250   -2.960500
  H    -22.643410    0.617550   -4.124420
  H    -20.757510   -0.142780   -5.492270
  H    -21.176470   -1.738130   -4.601760
  H    -19.132450   -0.850440   -2.864900
  H    -18.863240   -1.944930   -4.360830
  C    -22.428900   -0.821340   -2.338940
  C    -23.766400   -1.760410   -2.784460
  C    -23.414500   -3.326840   -3.299980
  H    -22.679030   -3.817890   -2.553450
  H    -22.940830   -3.294730   -4.353880
  H    -24.395140   -3.941180   -3.335020
  H    -24.312990   -1.220600   -3.643260
  H    -24.464500   -1.836340   -1.870830
  H    -21.604880   -1.555210   -1.985270
  H    -22.757970   -0.179870   -1.432830
  H     22.448850    5.446130    1.692930
  H     24.887910    3.133220    4.868930
  H    -14.955450    0.020190   -6.091650
  H    -18.430380    2.240040   -3.998180

----------------------------
CARTESIAN COORDINATES (A.U.)
----------------------------
  NO LB      ZA    FRAG    MASS        X           Y           Z
   0 C     4.0000    0    12.011         43.094561977188604          9.029999639158683          4.602220129290477
   1 C     4.0000    0    12.011         41.800817671383442          6.996540935491382          5.673354696519721
   2 C     4.0000    0    12.011         43.220077587003658          5.640530153573510          7.530010623097351
   3 C     4.0000    0    12.011         45.646750504617295          6.608145523186547          7.926928700266171
   4 S     6.0000    0    32.060         45.905000478078975          9.056058962545457          5.987087029273327
   5 H     1.0000    0     1.008         39.820970498135488          6.363898420377225          5.085725457915569
   6 C     4.0000    0    12.011         42.121655374400589          3.251424991502227          9.059706133983926
   7 C     4.0000    0    12.011         40.566883197716884          0.754643234320113          7.749540108074982
   8 C     4.0000    0    12.011         37.367709133817577          0.721799794112561          7.439530535805202
   9 H     1.0000    0     1.008         36.489515604861694          1.181891415938368          9.380921782227860
  10 H     1.0000    0     1.008         36.806498266565647          2.262096668610434          6.004566996012099
  11 H     1.0000    0     1.008         41.074199075629387         -0.981920596446822          8.971096875564358
  12 H     1.0000    0     1.008         41.387288901497456          0.491763431830327          5.748093365116307
  13 H     1.0000    0     1.008         40.734010577000880          4.008090232785635         10.610925625535863
  14 H     1.0000    0     1.008         43.782025447447822          2.258638469785358         10.107861631424687
  15 C     4.0000    0    12.011         36.398581983297404         -2.043285279563693          6.462013001250416
  16 C     4.0000    0    12.011         33.252017894966464         -2.591683803627640          6.268958579409021
  17 C     4.0000    0    12.011         31.967665528046890         -3.910618158797977          8.868409157447077
  18 H     1.0000    0     1.008         30.269009603526413         -5.156401215324223          8.276717007654995
  19 H     1.0000    0     1.008         31.282885468897842         -2.330807110839811         10.216161836159714
  20 H     1.0000    0     1.008         33.457733481905130         -5.147236043574706          9.883210988624128
  21 H     1.0000    0     1.008         32.911923882644658         -3.946333982729089          4.597117868728890
  22 H     1.0000    0     1.008         32.245549756040013         -0.699368744902916          5.891863729385036
  23 H     1.0000    0     1.008         37.209992590680514         -2.387971326390929          4.457788360874877
  24 H     1.0000    0     1.008         37.213205125108175         -3.570713119089562          7.803491789198435
  25 C     4.0000    0    12.011        -29.945488489399096          0.572492532271443        -10.567197362796925
  26 C     4.0000    0    12.011        -31.894211873221373         -1.010398769285015         -9.759131570670860
  27 C     4.0000    0    12.011        -33.928048522115454          0.280057413047129         -8.534985878378011
  28 C     4.0000    0    12.011        -33.583532550640278          2.895098231690036         -8.375644170765771
  29 S     6.0000    0    32.060        -30.819562415383032          3.464982941896668         -9.738571350333796
  30 H     1.0000    0     1.008        -31.862823522136939         -3.145732608832012        -10.065078231752709
  31 C     4.0000    0    12.011        -36.148495626734267         -1.608818344113858         -7.628956683469467
  32 C     4.0000    0    12.011        -39.210551162356246         -1.271577818254271         -8.432392646567427
  33 C     4.0000    0    12.011        -41.195897438653908          0.323180963423212         -6.563718061778058
  34 H     1.0000    0     1.008        -40.103938089428858          1.937441718802763         -5.594534219473866
  35 H     1.0000    0     1.008        -42.789843638093807          1.167000374003069         -7.794024261267488
  36 H     1.0000    0     1.008        -39.226009122131721         -0.269815097401276        -10.378886153551674
  37 H     1.0000    0     1.008        -40.017728783199367         -3.284589685152545         -8.696066134033458
  38 H     1.0000    0     1.008        -36.155090770941648         -1.607098693331989         -5.413876401070994
  39 H     1.0000    0     1.008        -35.646357598428715         -3.675385049647460         -8.240774416587811
  40 C     4.0000    0    12.011        -42.384478485106357         -1.552107662834881         -4.419956043673772
  41 C     4.0000    0    12.011        -44.911987189226039         -3.326692783416310         -5.261866830858368
  42 C     4.0000    0    12.011        -44.246992562699148         -6.286816491374577         -6.236058447417452
  43 H     1.0000    0     1.008        -42.857155682984086         -7.214766509436607         -4.825321196661220
  44 H     1.0000    0     1.008        -43.351885984844664         -6.226137385214366         -8.227640819957060
  45 H     1.0000    0     1.008        -46.100133598667689         -7.447750844487759         -6.302274451150053
  46 H     1.0000    0     1.008        -45.944892596766053         -2.306599719064280         -6.884763634669939
  47 H     1.0000    0     1.008        -46.231205003316461         -3.470179688764952         -3.535356343123895
  48 H     1.0000    0     1.008        -40.827306356232576         -2.938920980735670         -3.751616601889844
  49 H     1.0000    0     1.008        -43.006330663995826         -0.339905039708416         -2.707656296466387
  50 H     1.0000    0     1.008         42.422178521478088         10.291694189732546          3.199174063899305
  51 H     1.0000    0     1.008         47.031333945680061          5.920927717324744          9.200944265233199
  52 H     1.0000    0     1.008        -28.261704709552586          0.038153570643870        -11.511550203701391
  53 H     1.0000    0     1.008        -34.828370744099558          4.233062129028960         -7.555465234121270

--------------------------------
INTERNAL COORDINATES (ANGSTROEM)
--------------------------------
 C      0   0   0   0.000000     0.000     0.000
 C      1   0   0   1.395670     0.000     0.000
 C      2   1   0   1.429781   114.101     0.000
 C      3   2   1   1.398327   113.693     0.000
 S      1   2   3   1.658031   105.480     0.000
 H      2   1   3   1.142991   124.400   183.012
 C      3   2   1   1.609806   123.368   179.032
 C      7   3   2   1.703899   125.361    47.242
 C      8   7   3   1.700949   121.854   268.885
 H      9   8   7   1.153547   108.235   307.998
 H      9   8   7   1.152901   108.221    66.567
 H      8   7   3   1.155162   106.078   147.644
 H      8   7   3   1.153067   106.588    31.235
 H      7   3   2   1.171907   108.067   283.835
 H      7   3   2   1.164320   108.749   167.950
 C      9   8   7   1.634502   110.607   187.249
 C     16   9   8   1.693274   118.754   174.619
 C     17  16   9   1.685601   114.723   267.284
 H     18  17  16   1.157859   109.153   210.400
 H     18  17  16   1.157092   109.276    90.594
 H     18  17  16   1.156873   109.768   330.332
 H     17  16   9   1.152804   107.842   147.157
 H     17  16   9   1.151618   108.434    28.548
 H     16   9   8   1.158658   108.321   296.004
 H     16   9   8   1.158912   108.288    53.181
 C     19  18  17  33.525367   140.069   284.180
 C     26  19  18   1.395668   123.839   220.490
 C     27  26  19   1.429788   114.101   121.528
 C     28  27  26   1.398322   113.693     0.000
 S     26  19  18   1.658034   105.662   341.936
 H     27  26  19   1.141630   122.672   301.159
 C     28  27  26   1.615432   112.735   179.934
 C     32  28  27   1.684698   123.997   234.488
 C     33  32  28   1.671463   120.579   267.116
 H     34  33  32   1.151800   108.817    33.387
 H     34  33  32   1.155298   108.702   152.337
 H     33  32  28   1.158476   106.239    28.692
 H     33  32  28   1.156137   106.750   143.950
 H     32  28  27   1.172176   107.366   112.744
 H     32  28  27   1.171044   109.312   358.030
 C     34  33  32   1.633191   110.256   273.221
 C     41  34  33   1.693885   117.275   276.740
 C     42  41  34   1.686208   115.508    95.321
 H     43  42  41   1.157304   109.243    47.273
 H     43  42  41   1.155898   109.783   286.761
 H     43  42  41   1.157712   108.992   166.797
 H     42  41  34   1.152256   108.112   334.445
 H     42  41  34   1.152315   107.840   216.092
 H     41  34  33   1.158731   108.842    38.173
 H     41  34  33   1.157932   108.444   155.798
 H      1   2   3   1.060008   127.260   180.000
 H      4   3   2   1.060001   127.206   180.000
 H     26  19  18   1.060000    46.935   108.706
 H     29  28  27   1.060002   127.206   180.000

---------------------------
INTERNAL COORDINATES (A.U.)
---------------------------
 C      0   0   0   0.000000     0.000     0.000
 C      1   0   0   2.637434     0.000     0.000
 C      2   1   0   2.701895   114.101     0.000
 C      3   2   1   2.642454   113.693     0.000
 S      1   2   3   3.133225   105.480     0.000
 H      2   1   3   2.159940   124.400   183.012
 C      3   2   1   3.042092   123.368   179.032
 C      7   3   2   3.219902   125.361    47.242
 C      8   7   3   3.214327   121.854   268.885
 H      9   8   7   2.179887   108.235   307.998
 H      9   8   7   2.178668   108.221    66.567
 H      8   7   3   2.182939   106.078   147.644
 H      8   7   3   2.178981   106.588    31.235
 H      7   3   2   2.214584   108.067   283.835
 H      7   3   2   2.200246   108.749   167.950
 C      9   8   7   3.088761   110.607   187.249
 C     16   9   8   3.199824   118.754   174.619
 C     17  16   9   3.185324   114.723   267.284
 H     18  17  16   2.188037   109.153   210.400
 H     18  17  16   2.186587   109.276    90.594
 H     18  17  16   2.186172   109.768   330.332
 H     17  16   9   2.178484   107.842   147.157
 H     17  16   9   2.176243   108.434    28.548
 H     16   9   8   2.189546   108.321   296.004
 H     16   9   8   2.190026   108.288    53.181
 C     19  18  17  63.353762   140.069   284.180
 C     26  19  18   2.637430   123.839   220.490
 C     27  26  19   2.701907   114.101   121.528
 C     28  27  26   2.642446   113.693     0.000
 S     26  19  18   3.133229   105.662   341.936
 H     27  26  19   2.157369   122.672   301.159
 C     28  27  26   3.052724   112.735   179.934
 C     32  28  27   3.183618   123.997   234.488
 C     33  32  28   3.158607   120.579   267.116
 H     34  33  32   2.176587   108.817    33.387
 H     34  33  32   2.183197   108.702   152.337
 H     33  32  28   2.189202   106.239    28.692
 H     33  32  28   2.184783   106.750   143.950
 H     32  28  27   2.215091   107.366   112.744
 H     32  28  27   2.212953   109.312   358.030
 C     34  33  32   3.086284   110.256   273.221
 C     41  34  33   3.200979   117.275   276.740
 C     42  41  34   3.186471   115.508    95.321
 H     43  42  41   2.186988   109.243    47.273
 H     43  42  41   2.184330   109.783   286.761
 H     43  42  41   2.187758   108.992   166.797
 H     42  41  34   2.177447   108.112   334.445
 H     42  41  34   2.177559   107.840   216.092
 H     41  34  33   2.189683   108.842    38.173
 H     41  34  33   2.188174   108.444   155.798
 H      1   2   3   2.003125   127.260   180.000
 H      4   3   2   2.003111   127.206   180.000
 H     26  19  18   2.003110    46.935   108.706
 H     29  28  27   2.003113   127.206   180.000

----------------------------
SLATER BASIS SET DIM= 120
----------------------------
  0 C     2 shells
 l=0 nsto= 1
    2       1.625000000000        1.000000000000
 l=1 nsto= 1
    2       1.625000000000        1.000000000000
  1 C     2 shells
 l=0 nsto= 1
    2       1.625000000000        1.000000000000
 l=1 nsto= 1
    2       1.625000000000        1.000000000000
  2 C     2 shells
 l=0 nsto= 1
    2       1.625000000000        1.000000000000
 l=1 nsto= 1
    2       1.625000000000        1.000000000000
  3 C     2 shells
 l=0 nsto= 1
    2       1.625000000000        1.000000000000
 l=1 nsto= 1
    2       1.625000000000        1.000000000000
  4 S     2 shells
 l=0 nsto= 1
    3       1.925000000000        1.000000000000
 l=1 nsto= 1
    3       1.925000000000        1.000000000000
  5 H     1 shells
 l=0 nsto= 1
    1       1.200000000000        1.000000000000
  6 C     2 shells
 l=0 nsto= 1
    2       1.625000000000        1.000000000000
 l=1 nsto= 1
    2       1.625000000000        1.000000000000
  7 C     2 shells
 l=0 nsto= 1
    2       1.625000000000        1.000000000000
 l=1 nsto= 1
    2       1.625000000000        1.000000000000
  8 C     2 shells
 l=0 nsto= 1
    2       1.625000000000        1.000000000000
 l=1 nsto= 1
    2       1.625000000000        1.000000000000
  9 H     1 shells
 l=0 nsto= 1
    1       1.200000000000        1.000000000000
 10 H     1 shells
 l=0 nsto= 1
    1       1.200000000000        1.000000000000
 11 H     1 shells
 l=0 nsto= 1
    1       1.200000000000        1.000000000000
 12 H     1 shells
 l=0 nsto= 1
    1       1.200000000000        1.000000000000
 13 H     1 shells
 l=0 nsto= 1
    1       1.200000000000        1.000000000000
 14 H     1 shells
 l=0 nsto= 1
    1       1.200000000000        1.000000000000
 15 C     2 shells
 l=0 nsto= 1
    2       1.625000000000        1.000000000000
 l=1 nsto= 1
    2       1.625000000000        1.000000000000
 16 C     2 shells
 l=0 nsto= 1
    2       1.625000000000        1.000000000000
 l=1 nsto= 1
    2       1.625000000000        1.000000000000
 17 C     2 shells
 l=0 nsto= 1
    2       1.625000000000        1.000000000000
 l=1 nsto= 1
    2       1.625000000000        1.000000000000
 18 H     1 shells
 l=0 nsto= 1
    1       1.200000000000        1.000000000000
 19 H     1 shells
 l=0 nsto= 1
    1       1.200000000000        1.000000000000
 20 H     1 shells
 l=0 nsto= 1
    1       1.200000000000        1.000000000000
 21 H     1 shells
 l=0 nsto= 1
    1       1.200000000000        1.000000000000
 22 H     1 shells
 l=0 nsto= 1
    1       1.200000000000        1.000000000000
 23 H     1 shells
 l=0 nsto= 1
    1       1.200000000000        1.000000000000
 24 H     1 shells
 l=0 nsto= 1
    1       1.200000000000        1.000000000000
 25 C     2 shells
 l=0 nsto= 1
    2       1.625000000000        1.000000000000
 l=1 nsto= 1
    2       1.625000000000        1.000000000000
 26 C     2 shells
 l=0 nsto= 1
    2       1.625000000000        1.000000000000
 l=1 nsto= 1
    2       1.625000000000        1.000000000000
 27 C     2 shells
 l=0 nsto= 1
    2       1.625000000000        1.000000000000
 l=1 nsto= 1
    2       1.625000000000        1.000000000000
 28 C     2 shells
 l=0 nsto= 1
    2       1.625000000000        1.000000000000
 l=1 nsto= 1
    2       1.625000000000        1.000000000000
 29 S     2 shells
 l=0 nsto= 1
    3       1.925000000000        1.000000000000
 l=1 nsto= 1
    3       1.925000000000        1.000000000000
 30 H     1 shells
 l=0 nsto= 1
    1       1.200000000000        1.000000000000
 31 C     2 shells
 l=0 nsto= 1
    2       1.625000000000        1.000000000000
 l=1 nsto= 1
    2       1.625000000000        1.000000000000
 32 C     2 shells
 l=0 nsto= 1
    2       1.625000000000        1.000000000000
 l=1 nsto= 1
    2       1.625000000000        1.000000000000
 33 C     2 shells
 l=0 nsto= 1
    2       1.625000000000        1.000000000000
 l=1 nsto= 1
    2       1.625000000000        1.000000000000
 34 H     1 shells
 l=0 nsto= 1
    1       1.200000000000        1.000000000000
 35 H     1 shells
 l=0 nsto= 1
    1       1.200000000000        1.000000000000
 36 H     1 shells
 l=0 nsto= 1
    1       1.200000000000        1.000000000000
 37 H     1 shells
 l=0 nsto= 1
    1       1.200000000000        1.000000000000
 38 H     1 shells
 l=0 nsto= 1
    1       1.200000000000        1.000000000000
 39 H     1 shells
 l=0 nsto= 1
    1       1.200000000000        1.000000000000
 40 C     2 shells
 l=0 nsto= 1
    2       1.625000000000        1.000000000000
 l=1 nsto= 1
    2       1.625000000000        1.000000000000
 41 C     2 shells
 l=0 nsto= 1
    2       1.625000000000        1.000000000000
 l=1 nsto= 1
    2       1.625000000000        1.000000000000
 42 C     2 shells
 l=0 nsto= 1
    2       1.625000000000        1.000000000000
 l=1 nsto= 1
    2       1.625000000000        1.000000000000
 43 H     1 shells
 l=0 nsto= 1
    1       1.200000000000        1.000000000000
 44 H     1 shells
 l=0 nsto= 1
    1       1.200000000000        1.000000000000
 45 H     1 shells
 l=0 nsto= 1
    1       1.200000000000        1.000000000000
 46 H     1 shells
 l=0 nsto= 1
    1       1.200000000000        1.000000000000
 47 H     1 shells
 l=0 nsto= 1
    1       1.200000000000        1.000000000000
 48 H     1 shells
 l=0 nsto= 1
    1       1.200000000000        1.000000000000
 49 H     1 shells
 l=0 nsto= 1
    1       1.200000000000        1.000000000000
 50 H     1 shells
 l=0 nsto= 1
    1       1.200000000000        1.000000000000
 51 H     1 shells
 l=0 nsto= 1
    1       1.200000000000        1.000000000000
 52 H     1 shells
 l=0 nsto= 1
    1       1.200000000000        1.000000000000
 53 H     1 shells
 l=0 nsto= 1
    1       1.200000000000        1.000000000000
------------------------------------------------------------------------------
                           ORCA NDO INTEGRAL CALCULATION
------------------------------------------------------------------------------

--------------
NDO PARAMETERS
--------------

Gamma integral treatment              ... Mataga-Nishimoto
Nuclear repulsuion treatment          ... Direct (ZA*ZB/RAB)
Interaction factors:
s-s (sigma) =    1.0000
s-p (sigma) =    1.0000
s-d (sigma) =    1.0000
p-p (sigma) =    1.2670  p-p(pi) =    0.5850
p-d (sigma) =    1.0000  p-d(pi) =    1.0000
d-d (sigma) =    1.0000  d-d(pi) =    1.0000 d-d (delta) =    1.0000

fGamma parameter for Mataga-Nishimoto gamma integrals:    1.2000

--------------------------
Parameters for Element H :
--------------------------
 One-electron parameters (in eV)
  U(s)  =   -13.060000 Beta(s) =    12.000000 Neff(s) =     1.000000
 One-center electron repulsion parameters (in eV)
  G(s,s)=    12.850000
--------------------------
Parameters for Element C :
--------------------------
 One-electron parameters (in eV)
  U(s)  =   -50.870766 Beta(s) =    17.000000 Neff(s) =     2.000000
  U(p)  =   -41.599980 Beta(p) =    17.000000 Neff(p) =     2.000000 
 One-center electron repulsion parameters (in eV)
  G(s,s)=    11.110000
  G(s,p)=    11.110000 G(p,p)  =    11.110000
 Slater-Condon parameters (in eV)
 F2(p,p)=     4.5098 G1(s,p)=    6.8977
--------------------------
Parameters for Element S :
--------------------------
 One-electron parameters (in eV)
  U(s)  =   -69.509597 Beta(s) =    15.000000 Neff(s) =     2.000000
  U(p)  =   -60.725746 Beta(p) =    15.000000 Neff(p) =     4.000000 
 One-center electron repulsion parameters (in eV)
  G(s,s)=    10.090000
  G(s,p)=    10.090000 G(p,p)  =    10.090000
 Slater-Condon parameters (in eV)
 F2(p,p)=     4.5377 G1(s,p)=    3.0756

 Number of atoms                    ....   54
 Number of basis functions          ....  120

 Overlap integrals                  .... done
 One electron matrix                .... done
 Nuclear repulsion                  .... done
 Integral list                      .... done
 Electron-electron repulsion        .... done
-------------------------------------------------------------------------------
                                 ORCA SCF
-------------------------------------------------------------------------------

------------
SCF SETTINGS
------------
Hamiltonian:
 ZDO-Hamiltonian        Method          .... INDO


General Settings:
 Integral files         IntName         .... /Users/mattyjones/GoogleDrive/Boise/Code/MorphCT/tests/output_EZ/donor_polymer/chromophores/input_orca/pair/00008-00019
 Hartree-Fock type      HFTyp           .... RHF
 Total Charge           Charge          ....    0
 Multiplicity           Mult            ....    1
 Number of Electrons    NEL             ....  124
 Basis Dimension        Dim             ....  120
 Nuclear Repulsion      ENuc            ....    634.8875881329 Eh

Convergence Acceleration:
 DIIS                   CNVDIIS         .... on
   Start iteration      DIISMaxIt       ....    12
   Startup error        DIISStart       ....  0.200000
   # of expansion vecs  DIISMaxEq       ....     5
   Bias factor          DIISBfac        ....   1.050
   Max. coefficient     DIISMaxC        ....  10.000
 Newton-Raphson         CNVNR           .... off
 SOSCF                  CNVSOSCF        .... on
   Start iteration      SOSCFMaxIt      ....   150
   Startup grad/error   SOSCFStart      ....  0.003300
 Level Shifting         CNVShift        .... on
   Level shift para.    LevelShift      ....    0.2500
   Turn off err/grad.   ShiftErr        ....    0.0010
 Zerner damping         CNVZerner       .... off
 Static damping         CNVDamp         .... on
   Fraction old density DampFac         ....    0.7000
   Max. Damping (<1)    DampMax         ....    0.9800
   Min. Damping (>=0)   DampMin         ....    0.0000
   Turn off err/grad.   DampErr         ....    0.1000
 Fernandez-Rico         CNVRico         .... off

SCF Procedure:
 Maximum # iterations   MaxIter         ....   125
 SCF integral mode      SCFMode         .... Conventional
 Integral Buffer length BufferLength    .... 1048576
 Integral index format  IndFormat       ....     0
 Integral value format  ValFormat       ....     0
 Integral Storage       Thresh          ....  1.000e-08 Eh

Convergence Tolerance:
 Convergence Check Mode ConvCheckMode   .... Total+1el-Energy
 Energy Change          TolE            ....  1.000e-06 Eh
 1-El. energy change                    ....  1.000e-03 Eh
 Orbital Gradient       TolG            ....  5.000e-05
 Orbital Rotation angle TolX            ....  5.000e-05
 DIIS Error             TolErr          ....  1.000e-06


Diagonalization of the overlap matrix:
Smallest eigenvalue                        ... 1.697e-01
Time for diagonalization                   ...    0.003 sec
Threshold for overlap eigenvalues          ... 1.000e-08
Number of eigenvalues below threshold      ... 0
Time for construction of square roots      ...    0.001 sec
Total time needed                          ...    0.004 sec

-------------------------------
INITIAL GUESS: EXTENDED HUECKEL
-------------------------------
EHT matrix was read from disk
EHT matrix was diagonalized
Initial density was built
                      ------------------
                      INITIAL GUESS DONE
                      ------------------

 InCore treatment chosen:
   Memory dedicated               ...    1024 MB
   Memory needed                  ...      0 MB
   Number of tiny    integrals    ...       0
   Number of small   integrals    ...       0
   Number of regular integrals    ...    7392

--------------
SCF ITERATIONS
--------------
ITER       Energy         Delta-E        Max-DP      RMS-DP      [F,P]     Damp
  0    -21.7924437559   0.000000000000 0.04318494  0.00144598  0.1047503 0.7000
  1    -21.8341394676  -0.041695711724 0.04163850  0.00136178  0.0716185 0.7000
                               ***Turning on DIIS***
  2    -21.8649917071  -0.030852239499 0.10833213  0.00349475  0.0449854 0.0000
  3    -21.9463830877  -0.081391380536 0.01763257  0.00072257  0.0200505 0.0000
  4    -21.9307817252   0.015601362451 0.01339394  0.00049693  0.0073317 0.0000
  5    -21.9477604850  -0.016978759825 0.00939558  0.00033622  0.0043538 0.0000
  6    -21.9501588544  -0.002398369338 0.00698314  0.00023850  0.0025339 0.0000
                      *** Initiating the SOSCF procedure ***
                           *** Shutting down DIIS ***
                      *** Re-Reading the Fockian *** 
                      *** Removing any level shift *** 
ITER      Energy       Delta-E        Grad      Rot      Max-DP    RMS-DP
  7    -21.94604238   0.0041164734  0.003013  0.003013  0.004163  0.000134
  8    -21.94413213   0.0019102548  0.000804  0.002209  0.002074  0.000062
  9    -21.94414651  -0.0000143832  0.000354  0.002147  0.002315  0.000065
 10    -21.94415175  -0.0000052405  0.000032  0.000087  0.000137  0.000004
                 **** Energy Check signals convergence ****
              ***Rediagonalizing the Fockian in SOSCF/NRSCF***

               *****************************************************
               *                     SUCCESS                       *
               *           SCF CONVERGED AFTER  11 CYCLES          *
               *****************************************************


----------------
TOTAL SCF ENERGY
----------------

Total Energy       :          -21.94415180 Eh            -597.13073 eV

Components:
Nuclear Repulsion  :          634.88758813 Eh           17276.16958 eV
Electronic Energy  :         -656.83173993 Eh          -17873.30030 eV

One Electron Energy:        -1223.20083597 Eh          -33284.98692 eV
Two Electron Energy:          566.36909604 Eh           15411.68662 eV


---------------
SCF CONVERGENCE
---------------

  Last Energy change         ...   -4.7783e-08  Tolerance :   1.0000e-06
  Last MAX-Density change    ...    6.3199e-05  Tolerance :   1.0000e-05
  Last RMS-Density change    ...    1.3648e-06  Tolerance :   1.0000e-06
  Last Orbital Gradient      ...    1.2126e-05  Tolerance :   5.0000e-05
  Last Orbital Rotation      ...    2.4614e-05  Tolerance :   5.0000e-05

             **** THE GBW FILE WAS UPDATED (/Users/mattyjones/GoogleDrive/Boise/Code/MorphCT/tests/output_EZ/donor_polymer/chromophores/input_orca/pair/00008-00019.gbw) ****
             **** DENSITY FILE WAS UPDATED (/Users/mattyjones/GoogleDrive/Boise/Code/MorphCT/tests/output_EZ/donor_polymer/chromophores/input_orca/pair/00008-00019.scfp.tmp) ****
             **** ENERGY FILE WAS UPDATED (/Users/mattyjones/GoogleDrive/Boise/Code/MorphCT/tests/output_EZ/donor_polymer/chromophores/input_orca/pair/00008-00019.en.tmp) ****
----------------
ORBITAL ENERGIES
----------------

  NO   OCC          E(Eh)            E(eV) 
   0   2.0000      -1.558165       -42.3998 
   1   2.0000      -1.556334       -42.3500 
   2   2.0000      -1.412972       -38.4489 
   3   2.0000      -1.396302       -37.9953 
   4   2.0000      -1.291170       -35.1345 
   5   2.0000      -1.281413       -34.8690 
   6   2.0000      -1.188443       -32.3392 
   7   2.0000      -1.179200       -32.0877 
   8   2.0000      -1.115612       -30.3573 
   9   2.0000      -1.109118       -30.1806 
  10   2.0000      -1.060348       -28.8535 
  11   2.0000      -1.032133       -28.0858 
  12   2.0000      -0.968426       -26.3522 
  13   2.0000      -0.956308       -26.0225 
  14   2.0000      -0.894881       -24.3510 
  15   2.0000      -0.891388       -24.2559 
  16   2.0000      -0.868557       -23.6346 
  17   2.0000      -0.855115       -23.2689 
  18   2.0000      -0.833129       -22.6706 
  19   2.0000      -0.831558       -22.6278 
  20   2.0000      -0.783920       -21.3315 
  21   2.0000      -0.771394       -20.9907 
  22   2.0000      -0.735849       -20.0235 
  23   2.0000      -0.724618       -19.7179 
  24   2.0000      -0.709654       -19.3107 
  25   2.0000      -0.687843       -18.7172 
  26   2.0000      -0.676643       -18.4124 
  27   2.0000      -0.674113       -18.3436 
  28   2.0000      -0.648648       -17.6506 
  29   2.0000      -0.634513       -17.2660 
  30   2.0000      -0.612898       -16.6778 
  31   2.0000      -0.612572       -16.6689 
  32   2.0000      -0.593437       -16.1482 
  33   2.0000      -0.588643       -16.0178 
  34   2.0000      -0.577029       -15.7018 
  35   2.0000      -0.576119       -15.6770 
  36   2.0000      -0.565454       -15.3868 
  37   2.0000      -0.561885       -15.2897 
  38   2.0000      -0.557452       -15.1691 
  39   2.0000      -0.553927       -15.0731 
  40   2.0000      -0.534723       -14.5506 
  41   2.0000      -0.534165       -14.5354 
  42   2.0000      -0.522542       -14.2191 
  43   2.0000      -0.515826       -14.0363 
  44   2.0000      -0.509163       -13.8550 
  45   2.0000      -0.505734       -13.7617 
  46   2.0000      -0.495045       -13.4709 
  47   2.0000      -0.491976       -13.3873 
  48   2.0000      -0.487228       -13.2582 
  49   2.0000      -0.485671       -13.2158 
  50   2.0000      -0.481544       -13.1035 
  51   2.0000      -0.479056       -13.0358 
  52   2.0000      -0.469507       -12.7759 
  53   2.0000      -0.468578       -12.7507 
  54   2.0000      -0.464605       -12.6425 
  55   2.0000      -0.456908       -12.4331 
  56   2.0000      -0.441063       -12.0019 
  57   2.0000      -0.436935       -11.8896 
  58   2.0000      -0.357050        -9.7158 
  59   2.0000      -0.356746        -9.7076 
  60   2.0000      -0.305082        -8.3017 
  61   2.0000      -0.304997        -8.2994 
  62   0.0000       0.007489         0.2038 
  63   0.0000       0.007498         0.2040 
  64   0.0000       0.065609         1.7853 
  65   0.0000       0.069364         1.8875 
  66   0.0000       0.075178         2.0457 
  67   0.0000       0.077725         2.1150 
  68   0.0000       0.085961         2.3391 
  69   0.0000       0.088683         2.4132 
  70   0.0000       0.104792         2.8515 
  71   0.0000       0.104853         2.8532 
  72   0.0000       0.108034         2.9398 
  73   0.0000       0.108507         2.9526 
  74   0.0000       0.123295         3.3550 
  75   0.0000       0.124085         3.3765 
  76   0.0000       0.140968         3.8359 
  77   0.0000       0.141640         3.8542 
  78   0.0000       0.155445         4.2299 
  79   0.0000       0.160459         4.3663 
  80   0.0000       0.165198         4.4953 
  81   0.0000       0.165836         4.5126 
  82   0.0000       0.166635         4.5344 
  83   0.0000       0.172297         4.6885 
  84   0.0000       0.203815         5.5461 
  85   0.0000       0.204772         5.5721 
  86   0.0000       0.230745         6.2789 
  87   0.0000       0.233318         6.3489 
  88   0.0000       0.233650         6.3579 
  89   0.0000       0.233836         6.3630 
  90   0.0000       0.236442         6.4339 
  91   0.0000       0.238243         6.4829 
  92   0.0000       0.238329         6.4853 
  93   0.0000       0.240158         6.5350 
  94   0.0000       0.240995         6.5578 
  95   0.0000       0.241980         6.5846 
  96   0.0000       0.243317         6.6210 
  97   0.0000       0.243589         6.6284 
  98   0.0000       0.244997         6.6667 
  99   0.0000       0.245541         6.6815 
 100   0.0000       0.248606         6.7649 
 101   0.0000       0.250916         6.8278 
 102   0.0000       0.257541         7.0080 
 103   0.0000       0.259709         7.0670 
 104   0.0000       0.266707         7.2575 
 105   0.0000       0.267043         7.2666 
 106   0.0000       0.283145         7.7048 
 107   0.0000       0.284964         7.7543 
 108   0.0000       0.298420         8.1204 
 109   0.0000       0.306976         8.3532 
 110   0.0000       0.309892         8.4326 
 111   0.0000       0.311122         8.4661 
 112   0.0000       0.337461         9.1828 
 113   0.0000       0.340567         9.2673 
 114   0.0000       0.349838         9.5196 
 115   0.0000       0.356623         9.7042 
 116   0.0000       0.412323        11.2199 
 117   0.0000       0.420624        11.4458 
 118   0.0000       0.428706        11.6657 
 119   0.0000       0.431747        11.7484 
-------
TIMINGS
-------

Total SCF time: 0 days 0 hours 0 min 0 sec 

Total time                  ....       0.173 sec
Sum of individual times     ....       0.143 sec  ( 82.4%)

Fock matrix formation       ....       0.052 sec  ( 30.0%)
Diagonalization             ....       0.027 sec  ( 15.6%)
Density matrix formation    ....       0.005 sec  (  3.1%)
Population analysis         ....       0.000 sec  (  0.0%)
Initial guess               ....       0.003 sec  (  1.7%)
Orbital Transformation      ....       0.000 sec  (  0.0%)
Orbital Orthonormalization  ....       0.000 sec  (  0.0%)
DIIS solution               ....       0.046 sec  ( 26.8%)
SOSCF solution              ....       0.009 sec  (  5.2%)

-------------------------   --------------------
FINAL SINGLE POINT ENERGY       -21.944151797688
-------------------------   --------------------


                            ***************************************
                            *     ORCA property calculations      *
                            ***************************************

                                    ---------------------
                                    Active property flags
                                    ---------------------
   (+) Dipole Moment


------------------------------------------------------------------------------
                       ORCA ELECTRIC PROPERTIES CALCULATION
------------------------------------------------------------------------------

Dipole Moment Calculation                       ... on
Quadrupole Moment Calculation                   ... off
Polarizability Calculation                      ... off
GBWName                                         ... /Users/mattyjones/GoogleDrive/Boise/Code/MorphCT/tests/output_EZ/donor_polymer/chromophores/input_orca/pair/00008-00019.gbw
Electron density file                           ... /Users/mattyjones/GoogleDrive/Boise/Code/MorphCT/tests/output_EZ/donor_polymer/chromophores/input_orca/pair/00008-00019.scfp.tmp

-------------
DIPOLE MOMENT
-------------
                                X             Y             Z
Electronic contribution:    216.91336     176.60168     -52.77230
Nuclear contribution   :   -116.08907     -94.81957      28.58090
                        -----------------------------------------
Total Dipole Moment    :    100.82429      81.78211     -24.19141
                        -----------------------------------------
Magnitude (a.u.)       :    132.05709
Magnitude (Debye)      :    335.66245


Timings for individual modules:

Sum of individual times         ...        0.270 sec (=   0.004 min)
STO integral calculation        ...        0.049 sec (=   0.001 min)  18.1 %
SCF iterations                  ...        0.221 sec (=   0.004 min)  81.9 %
                             ****ORCA TERMINATED NORMALLY****
TOTAL RUN TIME: 0 days 0 hours 0 minutes 0 seconds 603 msec

