
                                 *****************
                                 * O   R   C   A *
                                 *****************

           --- An Ab Initio, DFT and Semiempirical electronic structure package ---

                  #######################################################
                  #                        -***-                        #
                  #  Department of molecular theory and spectroscopy    #
                  #              Directorship: Frank Neese              #
                  # Max Planck Institute for Chemical Energy Conversion #
                  #                  D-45470 Muelheim/Ruhr              #
                  #                       Germany                       #
                  #                                                     #
                  #                  All rights reserved                #
                  #                        -***-                        #
                  #######################################################


                         Program Version 3.0.3 - RELEASE   -


 With contributions from (in alphabetic order):
   Ute Becker             : Parallelization
   Dmytro Bykov           : SCF Hessian
   Dmitry Ganyushin       : Spin-Orbit,Spin-Spin,Magnetic field MRCI
   Andreas Hansen         : Spin unrestricted coupled pair/coupled cluster methods
   Dimitrios Liakos       : Extrapolation schemes; parallel MDCI
   Robert Izsak           : Overlap fitted RIJCOSX, COSX-SCS-MP3
   Christian Kollmar      : KDIIS, OOCD, Brueckner-CCSD(T), CCSD density
   Simone Kossmann        : Meta GGA functionals, TD-DFT gradient, OOMP2, MP2 Hessian
   Taras Petrenko         : DFT Hessian,TD-DFT gradient, ASA and ECA modules, normal mode analysis, Resonance Raman, ABS, FL, XAS/XES, NRVS
   Christoph Reimann      : Effective Core Potentials
   Michael Roemelt        : Restricted open shell CIS
   Christoph Riplinger    : Improved optimizer, TS searches, QM/MM, DLPNO-CCSD
   Barbara Sandhoefer     : DKH picture change effects
   Igor Schapiro          : Molecular dynamics
   Kantharuban Sivalingam : CASSCF convergence, NEVPT2
   Boris Wezisla          : Elementary symmetry handling
   Frank Wennmohs         : Technical directorship


 We gratefully acknowledge several colleagues who have allowed us to
 interface, adapt or use parts of their codes:
   Stefan Grimme, W. Hujo, H. Kruse, T. Risthaus : VdW corrections, initial TS optimization,
                                                   DFT functionals, gCP
   Ed Valeev                                     : LibInt (2-el integral package), F12 methods
   Garnet Chan, S. Sharma, R. Olivares           : DMRG
   Ulf Ekstrom                                   : XCFun DFT Library
   Mihaly Kallay                                 : mrcc  (arbitrary order and MRCC methods)
   Andreas Klamt, Michael Diedenhofen            : otool_cosmo (COSMO solvation model)
   Frank Weinhold                                : gennbo (NPA and NBO analysis)
   Christopher J. Cramer and Donald G. Truhlar   : smd solvation model


 Your calculation uses the libint2 library for the computation of 2-el integrals
 For citations please refer to: http://libint.valeyev.net

 This ORCA versions uses:
   CBLAS   interface :  Fast vector & matrix operations
   LAPACKE interface :  Fast linear algebra routines
   SCALAPACK package :  Parallel linear algebra routines


leaving
================================================================================
                                        WARNINGS
                       Please study these warnings very carefully!
================================================================================
Now building the actual basis set

WARNING: Direct SCF is incompatible with Method<>HF and Method<>DFT
  ===> : conventional SCF is chosen

WARNING: The NDO methods need Guess=HUECKEL or Guess=HCORE or Guess=MOREAD
  ===> : Guess is set to Hueckel

WARNING: The NDO methods need %rel::SOCType==1
  ===> : %rel::SOCType is set to 1

WARNING: The NDO methods cannot have frozencore=1
  ===> : %method FrozenCore=0 end


INFO   : the flag for use of LIBINT has been found!

================================================================================
                                       INPUT FILE
================================================================================
NAME = /Users/mattyjones/GoogleDrive/Boise/Code/MorphCT/tests/output_EZ/donor_polymer/chromophores/input_orca/pair/00002-00005.inp
|  1> # ================================================================
|  2> # Orca input file made by Matty Jones
|  3> # ================================================================
|  4> ! ZINDO/S 
|  5> ! NOPOP
|  6> ! NOMOPRINT
|  7> * xyz 0   1
|  8>  C  -3.30268  5.88813  -4.28338
|  9>  C  -4.13656  4.77582  -4.15967
| 10>  C  -3.59663  3.72852  -3.34979
| 11>  C  -2.33001  4.01530  -2.83138
| 12>  S  -1.95014  5.52829  -3.39442
| 13>  H  -5.24526  4.81746  -4.41381
| 14>  C  -4.46200  2.38890  -3.14699
| 15>  C  -6.13604  2.56110  -3.04388
| 16>  C  -6.67751  2.53311  -4.65525
| 17>  H  -7.70708  3.05433  -4.68197
| 18>  H  -5.94356  3.11043  -5.33181
| 19>  H  -6.59324  1.68712  -2.45840
| 20>  H  -6.40389  3.56311  -2.55616
| 21>  H  -4.21544  1.88755  -2.11764
| 22>  H  -4.20418  1.63045  -3.98835
| 23>  C  -6.79390  1.01653  -5.23215
| 24>  C  -7.21885  0.86804  -6.86129
| 25>  C  -7.50294  2.29956  -7.69649
| 26>  H  -8.04604  2.05344  -8.68979
| 27>  H  -6.49475  2.81869  -7.92630
| 28>  H  -8.16700  3.00067  -7.06000
| 29>  H  -6.35812  0.31650  -7.39765
| 30>  H  -8.17607  0.22807  -6.91756
| 31>  H  -5.77544  0.47953  -5.10659
| 32>  H  -7.58654  0.44086  -4.61465
| 33>  C  1.04318  -4.53578  2.43628
| 34>  C  2.26575  -3.88223  2.59781
| 35>  C  3.14515  -4.51160  3.53312
| 36>  C  2.61431  -5.66797  4.11306
| 37>  S  1.10605  -5.84830  3.44745
| 38>  H  2.45230  -2.72447  2.70289
| 39>  C  4.62121  -3.99340  3.94187
| 40>  C  4.82662  -2.40231  4.50219
| 41>  C  6.43924  -1.93903  4.81271
| 42>  H  6.43654  -0.78579  4.64313
| 43>  H  7.05370  -2.40522  3.95322
| 44>  H  4.39879  -1.68688  3.71128
| 45>  H  4.24038  -2.30069  5.48710
| 46>  H  5.05660  -4.67516  4.78396
| 47>  H  5.32295  -4.09461  3.01259
| 48>  C  7.20144  -2.18177  6.23606
| 49>  C  8.85517  -1.77107  6.20484
| 50>  C  9.26859  -0.18049  6.56815
| 51>  H  10.42294  -0.08997  6.60540
| 52>  H  8.82319  0.11262  7.59393
| 53>  H  8.85390  0.51836  5.74462
| 54>  H  9.39384  -2.45815  6.95785
| 55>  H  9.26047  -1.96969  5.14525
| 56>  H  7.12676  -3.29590  6.53094
| 57>  H  6.70349  -1.54303  7.05934
| 58>  H  -3.49375  6.77579  -4.83032
| 59>  H  -1.73684  3.39545  -2.20886
| 60>  H  0.24316  -4.25274  1.80110
| 61>  H  3.07869  -6.29749  4.82836
| 62> *
| 63> 
| 64>                          ****END OF INPUT****
================================================================================

                       ****************************
                       * Single Point Calculation *
                       ****************************

---------------------------------
CARTESIAN COORDINATES (ANGSTROEM)
---------------------------------
  C     -3.302680    5.888130   -4.283380
  C     -4.136560    4.775820   -4.159670
  C     -3.596630    3.728520   -3.349790
  C     -2.330010    4.015300   -2.831380
  S     -1.950140    5.528290   -3.394420
  H     -5.245260    4.817460   -4.413810
  C     -4.462000    2.388900   -3.146990
  C     -6.136040    2.561100   -3.043880
  C     -6.677510    2.533110   -4.655250
  H     -7.707080    3.054330   -4.681970
  H     -5.943560    3.110430   -5.331810
  H     -6.593240    1.687120   -2.458400
  H     -6.403890    3.563110   -2.556160
  H     -4.215440    1.887550   -2.117640
  H     -4.204180    1.630450   -3.988350
  C     -6.793900    1.016530   -5.232150
  C     -7.218850    0.868040   -6.861290
  C     -7.502940    2.299560   -7.696490
  H     -8.046040    2.053440   -8.689790
  H     -6.494750    2.818690   -7.926300
  H     -8.167000    3.000670   -7.060000
  H     -6.358120    0.316500   -7.397650
  H     -8.176070    0.228070   -6.917560
  H     -5.775440    0.479530   -5.106590
  H     -7.586540    0.440860   -4.614650
  C      1.043180   -4.535780    2.436280
  C      2.265750   -3.882230    2.597810
  C      3.145150   -4.511600    3.533120
  C      2.614310   -5.667970    4.113060
  S      1.106050   -5.848300    3.447450
  H      2.452300   -2.724470    2.702890
  C      4.621210   -3.993400    3.941870
  C      4.826620   -2.402310    4.502190
  C      6.439240   -1.939030    4.812710
  H      6.436540   -0.785790    4.643130
  H      7.053700   -2.405220    3.953220
  H      4.398790   -1.686880    3.711280
  H      4.240380   -2.300690    5.487100
  H      5.056600   -4.675160    4.783960
  H      5.322950   -4.094610    3.012590
  C      7.201440   -2.181770    6.236060
  C      8.855170   -1.771070    6.204840
  C      9.268590   -0.180490    6.568150
  H     10.422940   -0.089970    6.605400
  H      8.823190    0.112620    7.593930
  H      8.853900    0.518360    5.744620
  H      9.393840   -2.458150    6.957850
  H      9.260470   -1.969690    5.145250
  H      7.126760   -3.295900    6.530940
  H      6.703490   -1.543030    7.059340
  H     -3.493750    6.775790   -4.830320
  H     -1.736840    3.395450   -2.208860
  H      0.243160   -4.252740    1.801100
  H      3.078690   -6.297490    4.828360

----------------------------
CARTESIAN COORDINATES (A.U.)
----------------------------
  NO LB      ZA    FRAG    MASS        X           Y           Z
   0 C     4.0000    0    12.011         -6.241160707979040         11.126953140925741         -8.094415127515612
   1 C     4.0000    0    12.011         -7.816965536533293          9.024991864903793         -7.860637107488214
   2 C     4.0000    0    12.011         -6.796645705045192          7.045881684848065         -6.330185706148070
   3 C     4.0000    0    12.011         -4.403080789297856          7.587817345534002         -5.350532781061953
   4 S     6.0000    0    32.060         -3.685230522805190         10.446954088895517         -6.414524183504976
   5 H     1.0000    0     1.008         -9.912104901211784          9.103680061120272         -8.340892107162960
   6 C     4.0000    0    12.011         -8.431958009556624          4.514366761324478         -5.946949246188840
   7 C     4.0000    0    12.011        -11.595435146786158          4.839777601585718         -5.752099584520220
   8 C     4.0000    0    12.011        -12.618665156520496          4.786884167097262         -8.797147584936907
   9 H     1.0000    0     1.008        -14.564270492221802          5.771847222619697         -8.847641067235282
  10 H     1.0000    0     1.008        -11.231700660528993          5.877860858732679        -10.075660698102668
  11 H     1.0000    0     1.008        -12.459417935214953          3.188194755061222         -4.645702727632005
  12 H     1.0000    0     1.008        -12.101598291756964          6.733302085036151         -4.830442354484147
  13 H     1.0000    0     1.008         -7.966027133977001          3.566952564083059         -4.001759650237000
  14 H     1.0000    0     1.008         -7.944748817709048          3.081103975051905         -7.536889226224824
  15 C     4.0000    0    12.011        -12.838610381247591          1.920963306914970         -9.887330591596077
  16 C     4.0000    0    12.011        -13.641649501857428          1.640357873289003        -12.965959025412545
  17 C     4.0000    0    12.011        -14.178501799243115          4.345538628519954        -14.544258292463574
  18 H     1.0000    0     1.008        -15.204812062575748          3.880439232439255        -16.421323261287554
  19 H     1.0000    0     1.008        -12.273298808285048          5.326552156422493        -14.978536255300018
  20 H     1.0000    0     1.008        -15.433393335734863          5.670444518273482        -13.341466505484036
  21 H     1.0000    0     1.008        -12.015105526607389          0.598098321386076        -13.979532534602546
  22 H     1.0000    0     1.008        -15.450533151769527          0.430989839363420        -13.072293914968293
  23 H     1.0000    0     1.008        -10.913999902894153          0.906180372999258         -9.650056578220925
  24 H     1.0000    0     1.008        -14.336482904038933          0.833104663400523         -8.720424703899704
  25 C     4.0000    0    12.011          1.971324508383971         -8.571382003717334          4.603901985549667
  26 C     4.0000    0    12.011          4.281646987932076         -7.336351488893101          4.909149447961966
  27 C     4.0000    0    12.011          5.943472150102425         -8.525688425799117          6.676629198279852
  28 C     4.0000    0    12.011          4.940329929171668        -10.710911035281638          7.772556972386143
  29 S     6.0000    0    32.060          2.090131590423600        -11.051685349011656          6.514736360386819
  30 H     1.0000    0     1.008          4.634175398215086         -5.148502160084433          5.107721870114412
  31 C     4.0000    0    12.011          8.732821307338227         -7.546432343201126          7.449054755520165
  32 C     4.0000    0    12.011          9.120989952506992         -4.539707988780362          8.507906102878920
  33 C     4.0000    0    12.011         12.168400110591080         -3.664235665457324          9.094703861984147
  34 H     1.0000    0     1.008         12.163297850029492         -1.484927898773980          8.774244104193782
  35 H     1.0000    0     1.008         13.329561230840334         -4.545207091830073          7.470503147140170
  36 H     1.0000    0     1.008          8.312508420631463         -3.187741220789081          7.013302806299262
  37 H     1.0000    0     1.008          8.013156903756997         -4.347674019051285         10.369116269439299
  38 H     1.0000    0     1.008          9.555589168786202         -8.834772032263279          9.040374235633912
  39 H     1.0000    0     1.008         10.058917724556126         -7.737691525215297          5.692970053789823
  40 C     4.0000    0    12.011         13.608749369865858         -4.122947787205369         11.784445554700961
  41 C     4.0000    0    12.011         16.733846169315449         -3.346837264003911         11.725448304799938
  42 C     4.0000    0    12.011         17.515096747601174         -0.341076669911447         12.412004706514869
  43 H     1.0000    0     1.008         19.696502110293171         -0.170018660268895         12.482397005003437
  44 H     1.0000    0     1.008         16.673412727552648          0.212820957202211         14.350447980168612
  45 H     1.0000    0     1.008         16.731446217125370          0.979558438779420         10.855758543446701
  46 H     1.0000    0     1.008         17.751784945874814         -4.645230296098524         13.148430980903980
  47 H     1.0000    0     1.008         17.499752171393734         -3.722174668723350          9.723113390558320
  48 H     1.0000    0     1.008         13.467624622184619         -6.228348364791054         12.341687997071659
  49 H     1.0000    0     1.008         12.667760241479773         -2.915904116424509         13.340219286235648
  50 H     1.0000    0     1.008         -6.602230680387373         12.804387440962277         -9.127981939202501
  51 H     1.0000    0     1.008         -3.282151938439787          6.416470601422914         -4.174140468173296
  52 H     1.0000    0     1.008          0.459505806724292         -8.036513918772265          3.403585739805566
  53 H     1.0000    0     1.008          5.817880951242018        -11.900531431107742          9.124278075980016

--------------------------------
INTERNAL COORDINATES (ANGSTROEM)
--------------------------------
 C      0   0   0   0.000000     0.000     0.000
 C      1   0   0   1.395670     0.000     0.000
 C      2   1   0   1.429779   114.102     0.000
 C      3   2   1   1.398327   113.693     0.000
 S      1   2   3   1.658041   105.480     0.000
 H      2   1   3   1.138216   122.211   163.049
 C      3   2   1   1.607661   118.591   180.620
 C      7   3   2   1.686029   117.198   324.253
 C      8   7   3   1.700143   104.867    86.554
 H      9   8   7   1.154296   107.372   202.259
 H      9   8   7   1.153132   110.190   321.028
 H      8   7   3   1.147022   110.436   205.177
 H      8   7   3   1.146141   110.325   328.059
 H      7   3   2   1.171198   110.747   208.537
 H      7   3   2   1.161725   109.463    89.470
 C      9   8   7   1.626768   111.978    80.891
 C     16   9   8   1.690186   116.213   184.164
 C     17  16   9   1.681522   116.515   358.854
 H     18  17  16   1.158524   108.917   194.851
 H     18  17  16   1.157046   109.475    75.172
 H     18  17  16   1.156568   109.861   314.609
 H     17  16   9   1.154441   107.598   119.666
 H     17  16   9   1.152822   107.733   237.454
 H     16   9   8   1.158186   109.323   304.767
 H     16   9   8   1.158007   108.864    62.866
 C     14   7   3   9.468392   146.102   266.375
 C     26  14   7   1.395671   102.973    79.327
 C     27  26  14   1.429775   114.102   166.020
 C     28  27  26   1.398325   113.693     0.000
 S     26  14   7   1.658049   148.364   232.976
 H     27  26  14   1.177392   127.559    29.398
 C     28  27  26   1.616899   125.858   180.385
 C     32  28  27   1.699329   119.589    54.291
 C     33  32  28   1.706339   115.369   183.558
 H     34  33  32   1.165645   103.884   152.110
 H     34  33  32   1.154823   104.940    39.923
 H     33  32  28   1.149094   108.119   304.483
 H     33  32  28   1.150674   107.658    63.464
 H     32  28  27   1.167680   109.608   175.914
 H     32  28  27   1.168864   108.623   292.973
 C     34  33  32   1.632727   124.019   272.681
 C     41  34  33   1.704251   113.653   173.743
 C     42  41  34   1.683109   117.525    88.373
 H     43  42  41   1.158493   108.998   174.529
 H     43  42  41   1.156079   109.663    54.537
 H     43  42  41   1.156962   109.217   294.053
 H     42  41  34   1.152939   107.325   210.089
 H     42  41  34   1.151716   108.468   328.299
 H     41  34  33   1.154910   109.622    53.495
 H     41  34  33   1.154874   109.752   293.950
 H      1   2   3   1.059996   127.260   180.000
 H      4   3   2   1.059998   127.206   179.999
 H     26  14   7   1.059999    27.312   284.101
 H     29  28  27   1.059999   127.206   180.000

---------------------------
INTERNAL COORDINATES (A.U.)
---------------------------
 C      0   0   0   0.000000     0.000     0.000
 C      1   0   0   2.637433     0.000     0.000
 C      2   1   0   2.701890   114.102     0.000
 C      3   2   1   2.642455   113.693     0.000
 S      1   2   3   3.133243   105.480     0.000
 H      2   1   3   2.150917   122.211   163.049
 C      3   2   1   3.038040   118.591   180.620
 C      7   3   2   3.186133   117.198   324.253
 C      8   7   3   3.212805   104.867    86.554
 H      9   8   7   2.181303   107.372   202.259
 H      9   8   7   2.179105   110.190   321.028
 H      8   7   3   2.167558   110.436   205.177
 H      8   7   3   2.165892   110.325   328.059
 H      7   3   2   2.213244   110.747   208.537
 H      7   3   2   2.195341   109.463    89.470
 C      9   8   7   3.074147   111.978    80.891
 C     16   9   8   3.193989   116.213   184.164
 C     17  16   9   3.177616   116.515   358.854
 H     18  17  16   2.189293   108.917   194.851
 H     18  17  16   2.186500   109.475    75.172
 H     18  17  16   2.185598   109.861   314.609
 H     17  16   9   2.181578   107.598   119.666
 H     17  16   9   2.178517   107.733   237.454
 H     16   9   8   2.188655   109.323   304.767
 H     16   9   8   2.188316   108.864    62.866
 C     14   7   3  17.892667   146.102   266.375
 C     26  14   7   2.637436   102.973    79.327
 C     27  26  14   2.701883   114.102   166.020
 C     28  27  26   2.642451   113.693     0.000
 S     26  14   7   3.133258   148.364   232.976
 H     27  26  14   2.224948   127.559    29.398
 C     28  27  26   3.055495   125.858   180.385
 C     32  28  27   3.211266   119.589    54.291
 C     33  32  28   3.224514   115.369   183.558
 H     34  33  32   2.202749   103.884   152.110
 H     34  33  32   2.182300   104.940    39.923
 H     33  32  28   2.171473   108.119   304.483
 H     33  32  28   2.174460   107.658    63.464
 H     32  28  27   2.206596   109.608   175.914
 H     32  28  27   2.208833   108.623   292.973
 C     34  33  32   3.085406   124.019   272.681
 C     41  34  33   3.220568   113.653   173.743
 C     42  41  34   3.180615   117.525    88.373
 H     43  42  41   2.189234   108.998   174.529
 H     43  42  41   2.184673   109.663    54.537
 H     43  42  41   2.186341   109.217   294.053
 H     42  41  34   2.178739   107.325   210.089
 H     42  41  34   2.176427   108.468   328.299
 H     41  34  33   2.182463   109.622    53.495
 H     41  34  33   2.182395   109.752   293.950
 H      1   2   3   2.003102   127.260   180.000
 H      4   3   2   2.003106   127.206   179.999
 H     26  14   7   2.003107    27.312   284.101
 H     29  28  27   2.003108   127.206   180.000

----------------------------
SLATER BASIS SET DIM= 120
----------------------------
  0 C     2 shells
 l=0 nsto= 1
    2       1.625000000000        1.000000000000
 l=1 nsto= 1
    2       1.625000000000        1.000000000000
  1 C     2 shells
 l=0 nsto= 1
    2       1.625000000000        1.000000000000
 l=1 nsto= 1
    2       1.625000000000        1.000000000000
  2 C     2 shells
 l=0 nsto= 1
    2       1.625000000000        1.000000000000
 l=1 nsto= 1
    2       1.625000000000        1.000000000000
  3 C     2 shells
 l=0 nsto= 1
    2       1.625000000000        1.000000000000
 l=1 nsto= 1
    2       1.625000000000        1.000000000000
  4 S     2 shells
 l=0 nsto= 1
    3       1.925000000000        1.000000000000
 l=1 nsto= 1
    3       1.925000000000        1.000000000000
  5 H     1 shells
 l=0 nsto= 1
    1       1.200000000000        1.000000000000
  6 C     2 shells
 l=0 nsto= 1
    2       1.625000000000        1.000000000000
 l=1 nsto= 1
    2       1.625000000000        1.000000000000
  7 C     2 shells
 l=0 nsto= 1
    2       1.625000000000        1.000000000000
 l=1 nsto= 1
    2       1.625000000000        1.000000000000
  8 C     2 shells
 l=0 nsto= 1
    2       1.625000000000        1.000000000000
 l=1 nsto= 1
    2       1.625000000000        1.000000000000
  9 H     1 shells
 l=0 nsto= 1
    1       1.200000000000        1.000000000000
 10 H     1 shells
 l=0 nsto= 1
    1       1.200000000000        1.000000000000
 11 H     1 shells
 l=0 nsto= 1
    1       1.200000000000        1.000000000000
 12 H     1 shells
 l=0 nsto= 1
    1       1.200000000000        1.000000000000
 13 H     1 shells
 l=0 nsto= 1
    1       1.200000000000        1.000000000000
 14 H     1 shells
 l=0 nsto= 1
    1       1.200000000000        1.000000000000
 15 C     2 shells
 l=0 nsto= 1
    2       1.625000000000        1.000000000000
 l=1 nsto= 1
    2       1.625000000000        1.000000000000
 16 C     2 shells
 l=0 nsto= 1
    2       1.625000000000        1.000000000000
 l=1 nsto= 1
    2       1.625000000000        1.000000000000
 17 C     2 shells
 l=0 nsto= 1
    2       1.625000000000        1.000000000000
 l=1 nsto= 1
    2       1.625000000000        1.000000000000
 18 H     1 shells
 l=0 nsto= 1
    1       1.200000000000        1.000000000000
 19 H     1 shells
 l=0 nsto= 1
    1       1.200000000000        1.000000000000
 20 H     1 shells
 l=0 nsto= 1
    1       1.200000000000        1.000000000000
 21 H     1 shells
 l=0 nsto= 1
    1       1.200000000000        1.000000000000
 22 H     1 shells
 l=0 nsto= 1
    1       1.200000000000        1.000000000000
 23 H     1 shells
 l=0 nsto= 1
    1       1.200000000000        1.000000000000
 24 H     1 shells
 l=0 nsto= 1
    1       1.200000000000        1.000000000000
 25 C     2 shells
 l=0 nsto= 1
    2       1.625000000000        1.000000000000
 l=1 nsto= 1
    2       1.625000000000        1.000000000000
 26 C     2 shells
 l=0 nsto= 1
    2       1.625000000000        1.000000000000
 l=1 nsto= 1
    2       1.625000000000        1.000000000000
 27 C     2 shells
 l=0 nsto= 1
    2       1.625000000000        1.000000000000
 l=1 nsto= 1
    2       1.625000000000        1.000000000000
 28 C     2 shells
 l=0 nsto= 1
    2       1.625000000000        1.000000000000
 l=1 nsto= 1
    2       1.625000000000        1.000000000000
 29 S     2 shells
 l=0 nsto= 1
    3       1.925000000000        1.000000000000
 l=1 nsto= 1
    3       1.925000000000        1.000000000000
 30 H     1 shells
 l=0 nsto= 1
    1       1.200000000000        1.000000000000
 31 C     2 shells
 l=0 nsto= 1
    2       1.625000000000        1.000000000000
 l=1 nsto= 1
    2       1.625000000000        1.000000000000
 32 C     2 shells
 l=0 nsto= 1
    2       1.625000000000        1.000000000000
 l=1 nsto= 1
    2       1.625000000000        1.000000000000
 33 C     2 shells
 l=0 nsto= 1
    2       1.625000000000        1.000000000000
 l=1 nsto= 1
    2       1.625000000000        1.000000000000
 34 H     1 shells
 l=0 nsto= 1
    1       1.200000000000        1.000000000000
 35 H     1 shells
 l=0 nsto= 1
    1       1.200000000000        1.000000000000
 36 H     1 shells
 l=0 nsto= 1
    1       1.200000000000        1.000000000000
 37 H     1 shells
 l=0 nsto= 1
    1       1.200000000000        1.000000000000
 38 H     1 shells
 l=0 nsto= 1
    1       1.200000000000        1.000000000000
 39 H     1 shells
 l=0 nsto= 1
    1       1.200000000000        1.000000000000
 40 C     2 shells
 l=0 nsto= 1
    2       1.625000000000        1.000000000000
 l=1 nsto= 1
    2       1.625000000000        1.000000000000
 41 C     2 shells
 l=0 nsto= 1
    2       1.625000000000        1.000000000000
 l=1 nsto= 1
    2       1.625000000000        1.000000000000
 42 C     2 shells
 l=0 nsto= 1
    2       1.625000000000        1.000000000000
 l=1 nsto= 1
    2       1.625000000000        1.000000000000
 43 H     1 shells
 l=0 nsto= 1
    1       1.200000000000        1.000000000000
 44 H     1 shells
 l=0 nsto= 1
    1       1.200000000000        1.000000000000
 45 H     1 shells
 l=0 nsto= 1
    1       1.200000000000        1.000000000000
 46 H     1 shells
 l=0 nsto= 1
    1       1.200000000000        1.000000000000
 47 H     1 shells
 l=0 nsto= 1
    1       1.200000000000        1.000000000000
 48 H     1 shells
 l=0 nsto= 1
    1       1.200000000000        1.000000000000
 49 H     1 shells
 l=0 nsto= 1
    1       1.200000000000        1.000000000000
 50 H     1 shells
 l=0 nsto= 1
    1       1.200000000000        1.000000000000
 51 H     1 shells
 l=0 nsto= 1
    1       1.200000000000        1.000000000000
 52 H     1 shells
 l=0 nsto= 1
    1       1.200000000000        1.000000000000
 53 H     1 shells
 l=0 nsto= 1
    1       1.200000000000        1.000000000000
------------------------------------------------------------------------------
                           ORCA NDO INTEGRAL CALCULATION
------------------------------------------------------------------------------

--------------
NDO PARAMETERS
--------------

Gamma integral treatment              ... Mataga-Nishimoto
Nuclear repulsuion treatment          ... Direct (ZA*ZB/RAB)
Interaction factors:
s-s (sigma) =    1.0000
s-p (sigma) =    1.0000
s-d (sigma) =    1.0000
p-p (sigma) =    1.2670  p-p(pi) =    0.5850
p-d (sigma) =    1.0000  p-d(pi) =    1.0000
d-d (sigma) =    1.0000  d-d(pi) =    1.0000 d-d (delta) =    1.0000

fGamma parameter for Mataga-Nishimoto gamma integrals:    1.2000

--------------------------
Parameters for Element H :
--------------------------
 One-electron parameters (in eV)
  U(s)  =   -13.060000 Beta(s) =    12.000000 Neff(s) =     1.000000
 One-center electron repulsion parameters (in eV)
  G(s,s)=    12.850000
--------------------------
Parameters for Element C :
--------------------------
 One-electron parameters (in eV)
  U(s)  =   -50.870766 Beta(s) =    17.000000 Neff(s) =     2.000000
  U(p)  =   -41.599980 Beta(p) =    17.000000 Neff(p) =     2.000000 
 One-center electron repulsion parameters (in eV)
  G(s,s)=    11.110000
  G(s,p)=    11.110000 G(p,p)  =    11.110000
 Slater-Condon parameters (in eV)
 F2(p,p)=     4.5098 G1(s,p)=    6.8977
--------------------------
Parameters for Element S :
--------------------------
 One-electron parameters (in eV)
  U(s)  =   -69.509597 Beta(s) =    15.000000 Neff(s) =     2.000000
  U(p)  =   -60.725746 Beta(p) =    15.000000 Neff(p) =     4.000000 
 One-center electron repulsion parameters (in eV)
  G(s,s)=    10.090000
  G(s,p)=    10.090000 G(p,p)  =    10.090000
 Slater-Condon parameters (in eV)
 F2(p,p)=     4.5377 G1(s,p)=    3.0756

 Number of atoms                    ....   54
 Number of basis functions          ....  120

 Overlap integrals                  .... done
 One electron matrix                .... done
 Nuclear repulsion                  .... done
 Integral list                      .... done
 Electron-electron repulsion        .... done
-------------------------------------------------------------------------------
                                 ORCA SCF
-------------------------------------------------------------------------------

------------
SCF SETTINGS
------------
Hamiltonian:
 ZDO-Hamiltonian        Method          .... INDO


General Settings:
 Integral files         IntName         .... /Users/mattyjones/GoogleDrive/Boise/Code/MorphCT/tests/output_EZ/donor_polymer/chromophores/input_orca/pair/00002-00005
 Hartree-Fock type      HFTyp           .... RHF
 Total Charge           Charge          ....    0
 Multiplicity           Mult            ....    1
 Number of Electrons    NEL             ....  124
 Basis Dimension        Dim             ....  120
 Nuclear Repulsion      ENuc            ....    728.9271623648 Eh

Convergence Acceleration:
 DIIS                   CNVDIIS         .... on
   Start iteration      DIISMaxIt       ....    12
   Startup error        DIISStart       ....  0.200000
   # of expansion vecs  DIISMaxEq       ....     5
   Bias factor          DIISBfac        ....   1.050
   Max. coefficient     DIISMaxC        ....  10.000
 Newton-Raphson         CNVNR           .... off
 SOSCF                  CNVSOSCF        .... on
   Start iteration      SOSCFMaxIt      ....   150
   Startup grad/error   SOSCFStart      ....  0.003300
 Level Shifting         CNVShift        .... on
   Level shift para.    LevelShift      ....    0.2500
   Turn off err/grad.   ShiftErr        ....    0.0010
 Zerner damping         CNVZerner       .... off
 Static damping         CNVDamp         .... on
   Fraction old density DampFac         ....    0.7000
   Max. Damping (<1)    DampMax         ....    0.9800
   Min. Damping (>=0)   DampMin         ....    0.0000
   Turn off err/grad.   DampErr         ....    0.1000
 Fernandez-Rico         CNVRico         .... off

SCF Procedure:
 Maximum # iterations   MaxIter         ....   125
 SCF integral mode      SCFMode         .... Conventional
 Integral Buffer length BufferLength    .... 1048576
 Integral index format  IndFormat       ....     0
 Integral value format  ValFormat       ....     0
 Integral Storage       Thresh          ....  1.000e-08 Eh

Convergence Tolerance:
 Convergence Check Mode ConvCheckMode   .... Total+1el-Energy
 Energy Change          TolE            ....  1.000e-06 Eh
 1-El. energy change                    ....  1.000e-03 Eh
 Orbital Gradient       TolG            ....  5.000e-05
 Orbital Rotation angle TolX            ....  5.000e-05
 DIIS Error             TolErr          ....  1.000e-06


Diagonalization of the overlap matrix:
Smallest eigenvalue                        ... 1.689e-01
Time for diagonalization                   ...    0.003 sec
Threshold for overlap eigenvalues          ... 1.000e-08
Number of eigenvalues below threshold      ... 0
Time for construction of square roots      ...    0.001 sec
Total time needed                          ...    0.004 sec

-------------------------------
INITIAL GUESS: EXTENDED HUECKEL
-------------------------------
EHT matrix was read from disk
EHT matrix was diagonalized
Initial density was built
                      ------------------
                      INITIAL GUESS DONE
                      ------------------

 InCore treatment chosen:
   Memory dedicated               ...    1024 MB
   Memory needed                  ...      0 MB
   Number of tiny    integrals    ...       0
   Number of small   integrals    ...       0
   Number of regular integrals    ...    7392

--------------
SCF ITERATIONS
--------------
ITER       Energy         Delta-E        Max-DP      RMS-DP      [F,P]     Damp
  0    -23.6753303785   0.000000000000 0.04296484  0.00147808  0.0938458 0.7000
  1    -23.7186079795  -0.043277601023 0.03992736  0.00139457  0.0674105 0.7000
                               ***Turning on DIIS***
  2    -23.7505957832  -0.031987803677 0.10104406  0.00358030  0.0445576 0.0000
  3    -23.8320120181  -0.081416234981 0.01589680  0.00073840  0.0200093 0.0000
  4    -23.8185789787   0.013433039449 0.01135300  0.00051482  0.0074114 0.0000
  5    -23.8360216341  -0.017442655370 0.00806255  0.00035136  0.0042638 0.0000
  6    -23.8386985387  -0.002676904622 0.00636432  0.00025212  0.0023002 0.0000
                      *** Initiating the SOSCF procedure ***
                           *** Shutting down DIIS ***
                      *** Re-Reading the Fockian *** 
                      *** Removing any level shift *** 
ITER      Energy       Delta-E        Grad      Rot      Max-DP    RMS-DP
  7    -23.83484477   0.0038537712  0.003226  0.003226  0.003812  0.000145
  8    -23.83260514   0.0022396263  0.000943  0.002681  0.001874  0.000069
  9    -23.83262307  -0.0000179264  0.000418  0.002706  0.002169  0.000077
 10    -23.83263003  -0.0000069577  0.000042  0.000079  0.000142  0.000004
                 **** Energy Check signals convergence ****
              ***Rediagonalizing the Fockian in SOSCF/NRSCF***

               *****************************************************
               *                     SUCCESS                       *
               *           SCF CONVERGED AFTER  11 CYCLES          *
               *****************************************************


----------------
TOTAL SCF ENERGY
----------------

Total Energy       :          -23.83263009 Eh            -648.51883 eV

Components:
Nuclear Repulsion  :          728.92716236 Eh           19835.11649 eV
Electronic Energy  :         -752.75979246 Eh          -20483.63532 eV

One Electron Energy:        -1415.08268291 Eh          -38506.35743 eV
Two Electron Energy:          662.32289045 Eh           18022.72211 eV


---------------
SCF CONVERGENCE
---------------

  Last Energy change         ...   -6.8219e-08  Tolerance :   1.0000e-06
  Last MAX-Density change    ...    6.3626e-05  Tolerance :   1.0000e-05
  Last RMS-Density change    ...    1.7192e-06  Tolerance :   1.0000e-06
  Last Orbital Gradient      ...    1.7553e-05  Tolerance :   5.0000e-05
  Last Orbital Rotation      ...    3.6718e-05  Tolerance :   5.0000e-05

             **** THE GBW FILE WAS UPDATED (/Users/mattyjones/GoogleDrive/Boise/Code/MorphCT/tests/output_EZ/donor_polymer/chromophores/input_orca/pair/00002-00005.gbw) ****
             **** DENSITY FILE WAS UPDATED (/Users/mattyjones/GoogleDrive/Boise/Code/MorphCT/tests/output_EZ/donor_polymer/chromophores/input_orca/pair/00002-00005.scfp.tmp) ****
             **** ENERGY FILE WAS UPDATED (/Users/mattyjones/GoogleDrive/Boise/Code/MorphCT/tests/output_EZ/donor_polymer/chromophores/input_orca/pair/00002-00005.en.tmp) ****
----------------
ORBITAL ENERGIES
----------------

  NO   OCC          E(Eh)            E(eV) 
   0   2.0000      -1.563651       -42.5491 
   1   2.0000      -1.560280       -42.4574 
   2   2.0000      -1.421042       -38.6685 
   3   2.0000      -1.391604       -37.8675 
   4   2.0000      -1.296826       -35.2884 
   5   2.0000      -1.293116       -35.1875 
   6   2.0000      -1.178839       -32.0779 
   7   2.0000      -1.164701       -31.6931 
   8   2.0000      -1.109906       -30.2021 
   9   2.0000      -1.108771       -30.1712 
  10   2.0000      -1.041483       -28.3402 
  11   2.0000      -1.033814       -28.1315 
  12   2.0000      -0.987863       -26.8811 
  13   2.0000      -0.961078       -26.1523 
  14   2.0000      -0.911176       -24.7944 
  15   2.0000      -0.901892       -24.5417 
  16   2.0000      -0.860708       -23.4210 
  17   2.0000      -0.846950       -23.0467 
  18   2.0000      -0.823106       -22.3979 
  19   2.0000      -0.819045       -22.2873 
  20   2.0000      -0.782713       -21.2987 
  21   2.0000      -0.770211       -20.9585 
  22   2.0000      -0.734852       -19.9963 
  23   2.0000      -0.729119       -19.8403 
  24   2.0000      -0.709013       -19.2932 
  25   2.0000      -0.684848       -18.6357 
  26   2.0000      -0.681489       -18.5443 
  27   2.0000      -0.673830       -18.3358 
  28   2.0000      -0.649921       -17.6852 
  29   2.0000      -0.623204       -16.9582 
  30   2.0000      -0.617855       -16.8127 
  31   2.0000      -0.616429       -16.7739 
  32   2.0000      -0.592948       -16.1349 
  33   2.0000      -0.583370       -15.8743 
  34   2.0000      -0.577651       -15.7187 
  35   2.0000      -0.577432       -15.7127 
  36   2.0000      -0.570755       -15.5310 
  37   2.0000      -0.568597       -15.4723 
  38   2.0000      -0.559649       -15.2288 
  39   2.0000      -0.553088       -15.0503 
  40   2.0000      -0.537867       -14.6361 
  41   2.0000      -0.529563       -14.4101 
  42   2.0000      -0.529192       -14.4000 
  43   2.0000      -0.521125       -14.1805 
  44   2.0000      -0.507219       -13.8021 
  45   2.0000      -0.506280       -13.7766 
  46   2.0000      -0.495975       -13.4962 
  47   2.0000      -0.495282       -13.4773 
  48   2.0000      -0.489489       -13.3197 
  49   2.0000      -0.488368       -13.2892 
  50   2.0000      -0.481503       -13.1024 
  51   2.0000      -0.475993       -12.9524 
  52   2.0000      -0.468753       -12.7554 
  53   2.0000      -0.468482       -12.7480 
  54   2.0000      -0.454468       -12.3667 
  55   2.0000      -0.447942       -12.1891 
  56   2.0000      -0.437131       -11.8949 
  57   2.0000      -0.437107       -11.8943 
  58   2.0000      -0.354908        -9.6575 
  59   2.0000      -0.349601        -9.5131 
  60   2.0000      -0.304777        -8.2934 
  61   2.0000      -0.304631        -8.2894 
  62   0.0000       0.002203         0.0600 
  63   0.0000       0.007294         0.1985 
  64   0.0000       0.057830         1.5736 
  65   0.0000       0.068797         1.8721 
  66   0.0000       0.073457         1.9989 
  67   0.0000       0.081921         2.2292 
  68   0.0000       0.088622         2.4115 
  69   0.0000       0.089537         2.4364 
  70   0.0000       0.104547         2.8449 
  71   0.0000       0.105497         2.8707 
  72   0.0000       0.106854         2.9077 
  73   0.0000       0.109258         2.9731 
  74   0.0000       0.120210         3.2711 
  75   0.0000       0.125965         3.4277 
  76   0.0000       0.143943         3.9169 
  77   0.0000       0.144181         3.9234 
  78   0.0000       0.154445         4.2027 
  79   0.0000       0.155134         4.2214 
  80   0.0000       0.165186         4.4949 
  81   0.0000       0.170005         4.6261 
  82   0.0000       0.172311         4.6888 
  83   0.0000       0.178610         4.8602 
  84   0.0000       0.199401         5.4260 
  85   0.0000       0.205548         5.5932 
  86   0.0000       0.230343         6.2680 
  87   0.0000       0.234710         6.3868 
  88   0.0000       0.235055         6.3962 
  89   0.0000       0.236263         6.4290 
  90   0.0000       0.237346         6.4585 
  91   0.0000       0.238747         6.4966 
  92   0.0000       0.239614         6.5202 
  93   0.0000       0.240046         6.5320 
  94   0.0000       0.241208         6.5636 
  95   0.0000       0.242574         6.6008 
  96   0.0000       0.242983         6.6119 
  97   0.0000       0.244045         6.6408 
  98   0.0000       0.244161         6.6440 
  99   0.0000       0.246046         6.6952 
 100   0.0000       0.251332         6.8391 
 101   0.0000       0.257366         7.0033 
 102   0.0000       0.259494         7.0612 
 103   0.0000       0.265148         7.2151 
 104   0.0000       0.266122         7.2415 
 105   0.0000       0.269888         7.3440 
 106   0.0000       0.275168         7.4877 
 107   0.0000       0.283330         7.7098 
 108   0.0000       0.298982         8.1357 
 109   0.0000       0.304054         8.2737 
 110   0.0000       0.309095         8.4109 
 111   0.0000       0.310045         8.4368 
 112   0.0000       0.338511         9.2113 
 113   0.0000       0.341499         9.2927 
 114   0.0000       0.346614         9.4318 
 115   0.0000       0.353627         9.6227 
 116   0.0000       0.408868        11.1259 
 117   0.0000       0.416684        11.3385 
 118   0.0000       0.427226        11.6254 
 119   0.0000       0.433174        11.7873 
-------
TIMINGS
-------

Total SCF time: 0 days 0 hours 0 min 0 sec 

Total time                  ....       0.130 sec
Sum of individual times     ....       0.105 sec  ( 81.0%)

Fock matrix formation       ....       0.051 sec  ( 39.4%)
Diagonalization             ....       0.023 sec  ( 17.8%)
Density matrix formation    ....       0.005 sec  (  4.0%)
Population analysis         ....       0.000 sec  (  0.0%)
Initial guess               ....       0.003 sec  (  2.6%)
Orbital Transformation      ....       0.000 sec  (  0.0%)
Orbital Orthonormalization  ....       0.000 sec  (  0.0%)
DIIS solution               ....       0.016 sec  ( 12.1%)
SOSCF solution              ....       0.007 sec  (  5.1%)

-------------------------   --------------------
FINAL SINGLE POINT ENERGY       -23.832630093544
-------------------------   --------------------


                            ***************************************
                            *     ORCA property calculations      *
                            ***************************************

                                    ---------------------
                                    Active property flags
                                    ---------------------
   (+) Dipole Moment


------------------------------------------------------------------------------
                       ORCA ELECTRIC PROPERTIES CALCULATION
------------------------------------------------------------------------------

Dipole Moment Calculation                       ... on
Quadrupole Moment Calculation                   ... off
Polarizability Calculation                      ... off
GBWName                                         ... /Users/mattyjones/GoogleDrive/Boise/Code/MorphCT/tests/output_EZ/donor_polymer/chromophores/input_orca/pair/00002-00005.gbw
Electron density file                           ... /Users/mattyjones/GoogleDrive/Boise/Code/MorphCT/tests/output_EZ/donor_polymer/chromophores/input_orca/pair/00002-00005.scfp.tmp

-------------
DIPOLE MOMENT
-------------
                                X             Y             Z
Electronic contribution:    -24.01912     -11.92608       1.67944
Nuclear contribution   :     14.00688       5.86616      -0.01992
                        -----------------------------------------
Total Dipole Moment    :    -10.01224      -6.05992       1.65952
                        -----------------------------------------
Magnitude (a.u.)       :     11.82039
Magnitude (Debye)      :     30.04504


Timings for individual modules:

Sum of individual times         ...        0.214 sec (=   0.004 min)
STO integral calculation        ...        0.046 sec (=   0.001 min)  21.5 %
SCF iterations                  ...        0.168 sec (=   0.003 min)  78.5 %
                             ****ORCA TERMINATED NORMALLY****
TOTAL RUN TIME: 0 days 0 hours 0 minutes 0 seconds 528 msec

