
                                 *****************
                                 * O   R   C   A *
                                 *****************

           --- An Ab Initio, DFT and Semiempirical electronic structure package ---

                  #######################################################
                  #                        -***-                        #
                  #  Department of molecular theory and spectroscopy    #
                  #              Directorship: Frank Neese              #
                  # Max Planck Institute for Chemical Energy Conversion #
                  #                  D-45470 Muelheim/Ruhr              #
                  #                       Germany                       #
                  #                                                     #
                  #                  All rights reserved                #
                  #                        -***-                        #
                  #######################################################


                         Program Version 3.0.3 - RELEASE   -


 With contributions from (in alphabetic order):
   Ute Becker             : Parallelization
   Dmytro Bykov           : SCF Hessian
   Dmitry Ganyushin       : Spin-Orbit,Spin-Spin,Magnetic field MRCI
   Andreas Hansen         : Spin unrestricted coupled pair/coupled cluster methods
   Dimitrios Liakos       : Extrapolation schemes; parallel MDCI
   Robert Izsak           : Overlap fitted RIJCOSX, COSX-SCS-MP3
   Christian Kollmar      : KDIIS, OOCD, Brueckner-CCSD(T), CCSD density
   Simone Kossmann        : Meta GGA functionals, TD-DFT gradient, OOMP2, MP2 Hessian
   Taras Petrenko         : DFT Hessian,TD-DFT gradient, ASA and ECA modules, normal mode analysis, Resonance Raman, ABS, FL, XAS/XES, NRVS
   Christoph Reimann      : Effective Core Potentials
   Michael Roemelt        : Restricted open shell CIS
   Christoph Riplinger    : Improved optimizer, TS searches, QM/MM, DLPNO-CCSD
   Barbara Sandhoefer     : DKH picture change effects
   Igor Schapiro          : Molecular dynamics
   Kantharuban Sivalingam : CASSCF convergence, NEVPT2
   Boris Wezisla          : Elementary symmetry handling
   Frank Wennmohs         : Technical directorship


 We gratefully acknowledge several colleagues who have allowed us to
 interface, adapt or use parts of their codes:
   Stefan Grimme, W. Hujo, H. Kruse, T. Risthaus : VdW corrections, initial TS optimization,
                                                   DFT functionals, gCP
   Ed Valeev                                     : LibInt (2-el integral package), F12 methods
   Garnet Chan, S. Sharma, R. Olivares           : DMRG
   Ulf Ekstrom                                   : XCFun DFT Library
   Mihaly Kallay                                 : mrcc  (arbitrary order and MRCC methods)
   Andreas Klamt, Michael Diedenhofen            : otool_cosmo (COSMO solvation model)
   Frank Weinhold                                : gennbo (NPA and NBO analysis)
   Christopher J. Cramer and Donald G. Truhlar   : smd solvation model


 Your calculation uses the libint2 library for the computation of 2-el integrals
 For citations please refer to: http://libint.valeyev.net

 This ORCA versions uses:
   CBLAS   interface :  Fast vector & matrix operations
   LAPACKE interface :  Fast linear algebra routines
   SCALAPACK package :  Parallel linear algebra routines


leaving
================================================================================
                                        WARNINGS
                       Please study these warnings very carefully!
================================================================================
Now building the actual basis set

WARNING: Direct SCF is incompatible with Method<>HF and Method<>DFT
  ===> : conventional SCF is chosen

WARNING: The NDO methods need Guess=HUECKEL or Guess=HCORE or Guess=MOREAD
  ===> : Guess is set to Hueckel

WARNING: The NDO methods need %rel::SOCType==1
  ===> : %rel::SOCType is set to 1

WARNING: The NDO methods cannot have frozencore=1
  ===> : %method FrozenCore=0 end


INFO   : the flag for use of LIBINT has been found!

================================================================================
                                       INPUT FILE
================================================================================
NAME = /Users/mattyjones/GoogleDrive/Boise/Code/MorphCT/tests/output_EZ/donor_polymer/chromophores/input_orca/pair/00003-00028.inp
|  1> # ================================================================
|  2> # Orca input file made by Matty Jones
|  3> # ================================================================
|  4> ! ZINDO/S 
|  5> ! NOPOP
|  6> ! NOMOPRINT
|  7> * xyz 0   1
|  8>  C  -21.37375  -6.92650  -14.43952
|  9>  C  -20.47107  -6.17405  -13.68659
| 10>  C  -19.61081  -6.95599  -12.85424
| 11>  C  -19.83534  -8.33282  -12.95040
| 12>  S  -21.06907  -8.50779  -14.04482
| 13>  H  -19.87439  -5.20709  -14.00358
| 14>  C  -18.40325  -6.58204  -11.81951
| 15>  C  -16.96789  -5.74175  -12.20998
| 16>  C  -16.71457  -4.09514  -12.00249
| 17>  H  -16.17190  -3.69040  -12.93981
| 18>  H  -17.73693  -3.57052  -11.90032
| 19>  H  -16.13418  -6.28356  -11.61498
| 20>  H  -16.79482  -5.95213  -13.33572
| 21>  H  -18.87192  -5.91877  -10.98012
| 22>  H  -18.01705  -7.54806  -11.30243
| 23>  C  -15.79776  -3.81378  -10.67793
| 24>  C  -16.62942  -3.97913  -9.22068
| 25>  C  -17.52257  -2.61858  -8.81160
| 26>  H  -17.13662  -1.70212  -9.40356
| 27>  H  -17.42400  -2.41743  -7.67660
| 28>  H  -18.63426  -2.80804  -9.07671
| 29>  H  -17.33369  -4.88698  -9.29467
| 30>  H  -15.85407  -4.16477  -8.38701
| 31>  H  -14.90671  -4.55214  -10.65705
| 32>  H  -15.37404  -2.73814  -10.72643
| 33>  C  15.71738  1.02608  10.08107
| 34>  C  16.46616  2.00003  10.74337
| 35>  C  15.68014  2.93953  11.48080
| 36>  C  14.30376  2.70624  11.40039
| 37>  S  14.13414  1.36866  10.43472
| 38>  H  17.60852  2.00298  10.77234
| 39>  C  16.35799  4.14247  12.32508
| 40>  C  17.66298  4.93053  11.60884
| 41>  C  18.44036  6.20376  12.42225
| 42>  H  18.56406  5.92048  13.53259
| 43>  H  17.79418  7.15398  12.33612
| 44>  H  18.46850  4.12471  11.42441
| 45>  H  17.30035  5.35026  10.59774
| 46>  H  15.56649  4.98006  12.51313
| 47>  H  16.72757  3.74781  13.35621
| 48>  C  19.89247  6.42527  11.71251
| 49>  C  20.83267  7.75914  12.13227
| 50>  C  20.58418  9.04156  11.07146
| 51>  H  21.32847  9.89191  11.31816
| 52>  H  19.49882  9.42561  11.18137
| 53>  H  20.75878  8.67692  9.98640
| 54>  H  20.56104  8.09548  13.19836
| 55>  H  21.94330  7.45658  12.08845
| 56>  H  19.73520  6.47205  10.56524
| 57>  H  20.54311  5.49135  11.94659
| 58>  H  -22.10080  -6.56356  -15.12016
| 59>  H  -19.32406  -9.10336  -12.43228
| 60>  H  16.08365  0.23431  9.47895
| 61>  H  13.53067  3.26692  11.86036
| 62> *
| 63> 
| 64>                          ****END OF INPUT****
================================================================================

                       ****************************
                       * Single Point Calculation *
                       ****************************

---------------------------------
CARTESIAN COORDINATES (ANGSTROEM)
---------------------------------
  C    -21.373750   -6.926500  -14.439520
  C    -20.471070   -6.174050  -13.686590
  C    -19.610810   -6.955990  -12.854240
  C    -19.835340   -8.332820  -12.950400
  S    -21.069070   -8.507790  -14.044820
  H    -19.874390   -5.207090  -14.003580
  C    -18.403250   -6.582040  -11.819510
  C    -16.967890   -5.741750  -12.209980
  C    -16.714570   -4.095140  -12.002490
  H    -16.171900   -3.690400  -12.939810
  H    -17.736930   -3.570520  -11.900320
  H    -16.134180   -6.283560  -11.614980
  H    -16.794820   -5.952130  -13.335720
  H    -18.871920   -5.918770  -10.980120
  H    -18.017050   -7.548060  -11.302430
  C    -15.797760   -3.813780  -10.677930
  C    -16.629420   -3.979130   -9.220680
  C    -17.522570   -2.618580   -8.811600
  H    -17.136620   -1.702120   -9.403560
  H    -17.424000   -2.417430   -7.676600
  H    -18.634260   -2.808040   -9.076710
  H    -17.333690   -4.886980   -9.294670
  H    -15.854070   -4.164770   -8.387010
  H    -14.906710   -4.552140  -10.657050
  H    -15.374040   -2.738140  -10.726430
  C     15.717380    1.026080   10.081070
  C     16.466160    2.000030   10.743370
  C     15.680140    2.939530   11.480800
  C     14.303760    2.706240   11.400390
  S     14.134140    1.368660   10.434720
  H     17.608520    2.002980   10.772340
  C     16.357990    4.142470   12.325080
  C     17.662980    4.930530   11.608840
  C     18.440360    6.203760   12.422250
  H     18.564060    5.920480   13.532590
  H     17.794180    7.153980   12.336120
  H     18.468500    4.124710   11.424410
  H     17.300350    5.350260   10.597740
  H     15.566490    4.980060   12.513130
  H     16.727570    3.747810   13.356210
  C     19.892470    6.425270   11.712510
  C     20.832670    7.759140   12.132270
  C     20.584180    9.041560   11.071460
  H     21.328470    9.891910   11.318160
  H     19.498820    9.425610   11.181370
  H     20.758780    8.676920    9.986400
  H     20.561040    8.095480   13.198360
  H     21.943300    7.456580   12.088450
  H     19.735200    6.472050   10.565240
  H     20.543110    5.491350   11.946590
  H    -22.100800   -6.563560  -15.120160
  H    -19.324060   -9.103360  -12.432280
  H     16.083650    0.234310    9.478950
  H     13.530670    3.266920   11.860360

----------------------------
CARTESIAN COORDINATES (A.U.)
----------------------------
  NO LB      ZA    FRAG    MASS        X           Y           Z
   0 C     4.0000    0    12.011        -40.390533954899354        -13.089188066605550        -27.286738305278593
   1 C     4.0000    0    12.011        -38.684715968331318        -11.667263637136504        -25.863906807265266
   2 C     4.0000    0    12.011        -37.059060164364226        -13.144916090294887        -24.290993259695913
   3 C     4.0000    0    12.011        -37.483360373213557        -15.746747723261684        -24.472709324733778
   4 S     6.0000    0    32.060        -39.814772196416229        -16.077393104913885        -26.540863400219873
   5 H     1.0000    0     1.008        -37.557154178743183         -9.839974054680010        -26.462931094456959
   6 C     4.0000    0    12.011        -34.777102474086277        -12.438253002515035        -22.335636937143573
   7 C     4.0000    0    12.011        -32.064665170501065        -10.850335029442347        -23.073518300655802
   8 C     4.0000    0    12.011        -31.585959746256133         -7.738693080066274        -22.681419025128484
   9 H     1.0000    0     1.008        -30.560462065161090         -6.973845324622987        -24.452697124975550
  10 H     1.0000    0     1.008        -33.517940156531871         -6.747304955688508        -22.488345706025751
  11 H     1.0000    0     1.008        -30.489181595389582        -11.874207546062220        -21.949131250972659
  12 H     1.0000    0     1.008        -31.737610268503317        -11.247895613496700        -25.200858598656314
  13 H     1.0000    0     1.008        -35.662760421271145        -11.184854349669088        -20.749419717591412
  14 H     1.0000    0     1.008        -34.047290241165889        -14.263766242405644        -21.358497347815572
  15 C     4.0000    0    12.011        -29.853439929415792         -7.206999735026191        -20.178363377181750
  16 C     4.0000    0    12.011        -31.425049565952740         -7.519465951270070        -17.424559968525006
  17 C     4.0000    0    12.011        -33.112858462464509         -4.948399059763512        -16.651510801660503
  18 H     1.0000    0     1.008        -32.383518661077602         -3.216540647070041        -17.770153083896528
  19 H     1.0000    0     1.008        -32.926588157443888         -4.568280647925251        -14.506671639659880
  20 H     1.0000    0     1.008        -35.213648108283422         -5.306426573096232        -17.152496097024365
  21 H     1.0000    0     1.008        -32.755926990289460         -9.235053821950480        -17.564380805173840
  22 H     1.0000    0     1.008        -29.959850408016898         -7.870274710771211        -15.849151982458878
  23 H     1.0000    0     1.008        -28.169599457785264         -8.602297923268285        -20.138905895505474
  24 H     1.0000    0     1.008        -29.052725171950680         -5.174334716335136        -20.270015094676932
  25 C     4.0000    0    12.011         29.701543742771204          1.939010191493918         19.050461436889513
  26 C     4.0000    0    12.011         31.116532877328755          3.779508959626521         20.302027055385558
  27 C     4.0000    0    12.011         29.631170341543974          5.554906662445537         21.695567798323108
  28 C     4.0000    0    12.011         27.030189085337444          5.114052452663048         21.543614919894498
  29 S     6.0000    0    32.060         26.709653738501721          2.586392570452660         19.718763084150766
  30 H     1.0000    0     1.008         33.275280423675035          3.785083651721588         20.356772421485257
  31 C     4.0000    0    12.011         30.912121201422497          7.828133817984768         23.291025778670139
  32 C     4.0000    0    12.011         33.378194908928393          9.317351395082749         21.937528332510386
  33 C     4.0000    0    12.011         34.847230210916088         11.723407400575304         23.474650467103267
  34 H     1.0000    0     1.008         35.080989333682155         11.188085781358092         25.572888982641391
  35 H     1.0000    0     1.008         33.626126977698860         13.519062967549955         23.311888355188628
  36 H     1.0000    0     1.008         34.900407104324636          7.794572281846326         21.589006141631288
  37 H     1.0000    0     1.008         32.692923520984529         10.110526145273514         20.026826238502604
  38 H     1.0000    0     1.008         29.416402966423824          9.410949530495868         23.646388778154034
  39 H     1.0000    0     1.008         31.610526185997113          7.082334501971406         25.239579087140363
  40 C     4.0000    0    12.011         37.591320427244483         12.142000636500201         22.133436240814000
  41 C     4.0000    0    12.011         39.368040938357240         14.662649634753741         22.926667682788786
  42 C     4.0000    0    12.011         38.898462891339150         17.086072223417034         20.922027302663782
  43 H     1.0000    0     1.008         40.304967155555396         18.693000841396966         21.388222739902155
  44 H     1.0000    0     1.008         36.847429734626374         17.811821545149492         21.129727102043063
  45 H     1.0000    0     1.008         39.228409074321803         16.397002485943990         18.871561063791187
  46 H     1.0000    0     1.008         38.854734628600212         15.298240122636814         24.941285816900891
  47 H     1.0000    0     1.008         41.466827474474201         14.090894095674527         22.843859883600356
  48 H     1.0000    0     1.008         37.294123198162687         12.230402025045038         19.965410139150162
  49 H     1.0000    0     1.008         38.820851839018999         10.377147605508465         22.575783334242288
  50 H     1.0000    0     1.008        -41.764459340566795        -12.403330863560170        -28.572961501070754
  51 H     1.0000    0     1.008        -36.517181195462300        -17.202857298493367        -23.493604420226500
  52 H     1.0000    0     1.008         30.393693733842536          0.442781730439088         17.912619537132848
  53 H     1.0000    0     1.008         25.569260708464263          6.173584101430015         22.412832249714256

--------------------------------
INTERNAL COORDINATES (ANGSTROEM)
--------------------------------
 C      0   0   0   0.000000     0.000     0.000
 C      1   0   0   1.395678     0.000     0.000
 C      2   1   0   1.429785   114.101     0.000
 C      3   2   1   1.398328   113.693     0.000
 S      1   2   3   1.658040   105.480     0.000
 H      2   1   3   1.179628   128.617   141.125
 C      3   2   1   1.633617   133.495   179.247
 C      7   3   2   1.708453   126.076   300.986
 C      8   7   3   1.678853   125.515    96.305
 H      9   8   7   1.156233   108.298   222.542
 H      9   8   7   1.153640   108.859   341.138
 H      8   7   3   1.158730   104.901   219.964
 H      8   7   3   1.158233   104.972   333.519
 H      7   3   2   1.167970   106.773    61.421
 H      7   3   2   1.161773   109.712   176.571
 C      9   8   7   1.635287   110.699   102.530
 C     16   9   8   1.685994   113.996   284.054
 C     17  16   9   1.678142   113.186   278.323
 H     18  17  16   1.157270   109.868   341.139
 H     18  17  16   1.156893   109.559   220.660
 H     18  17  16   1.158462   108.806   100.909
 H     17  16   9   1.151374   108.875    40.000
 H     17  16   9   1.153532   107.992   158.586
 H     16   9   8   1.157403   109.662    44.693
 H     16   9   8   1.157105   109.347   163.147
 C     23  17  16  36.942812   155.938    42.635
 C     26  23  17   1.395669   142.540    57.419
 C     27  26  23   1.429787   114.101    36.931
 C     28  27  26   1.398325   113.693     0.000
 S     26  23  17   1.658034    47.126   109.620
 H     27  26  23   1.142731   123.378   212.012
 C     28  27  26   1.618442   121.816   179.660
 C     32  28  27   1.684351   116.771    40.687
 C     33  32  28   1.699138   120.099   180.135
 H     34  33  32   1.152564   109.033    42.287
 H     34  33  32   1.152339   109.000   282.722
 H     33  32  28   1.154220   106.380   300.675
 H     33  32  28   1.153255   107.426    57.839
 H     32  28  27   1.167644   109.468   159.693
 H     32  28  27   1.164292   110.060   278.741
 C     34  33  32   1.631386   107.501   162.598
 C     41  34  33   1.685047   119.720   171.248
 C     42  41  34   1.682756   111.336   265.326
 H     43  42  41   1.156686   109.317   186.276
 H     43  42  41   1.156538   109.374    65.973
 H     43  42  41   1.157930   109.176   306.078
 H     42  41  34   1.150415   109.301    25.871
 H     42  41  34   1.151938   108.697   145.772
 H     41  34  33   1.158944   108.383    48.427
 H     41  34  33   1.162038   107.555   291.980
 H      1   2   3   1.059999   127.259   180.000
 H      4   3   2   1.059994   127.206   180.000
 H     26  23  17   1.060001    84.628   266.126
 H     29  28  27   1.060001   127.206   179.999

---------------------------
INTERNAL COORDINATES (A.U.)
---------------------------
 C      0   0   0   0.000000     0.000     0.000
 C      1   0   0   2.637448     0.000     0.000
 C      2   1   0   2.701901   114.101     0.000
 C      3   2   1   2.642457   113.693     0.000
 S      1   2   3   3.133241   105.480     0.000
 H      2   1   3   2.229173   128.617   141.125
 C      3   2   1   3.087090   133.495   179.247
 C      7   3   2   3.228509   126.076   300.986
 C      8   7   3   3.172573   125.515    96.305
 H      9   8   7   2.184963   108.298   222.542
 H      9   8   7   2.180063   108.859   341.138
 H      8   7   3   2.189683   104.901   219.964
 H      8   7   3   2.188743   104.972   333.519
 H      7   3   2   2.207144   106.773    61.421
 H      7   3   2   2.195433   109.712   176.571
 C      9   8   7   3.090244   110.699   102.530
 C     16   9   8   3.186067   113.996   284.054
 C     17  16   9   3.171228   113.186   278.323
 H     18  17  16   2.186923   109.868   341.139
 H     18  17  16   2.186212   109.559   220.660
 H     18  17  16   2.189175   108.806   100.909
 H     17  16   9   2.175782   108.875    40.000
 H     17  16   9   2.179859   107.992   158.586
 H     16   9   8   2.187175   109.662    44.693
 H     16   9   8   2.186612   109.347   163.147
 C     23  17  16  69.811797   155.938    42.635
 C     26  23  17   2.637432   142.540    57.419
 C     27  26  23   2.701906   114.101    36.931
 C     28  27  26   2.642451   113.693     0.000
 S     26  23  17   3.133231    47.126   109.620
 H     27  26  23   2.159449   123.378   212.012
 C     28  27  26   3.058412   121.816   179.660
 C     32  28  27   3.182961   116.771    40.687
 C     33  32  28   3.210906   120.099   180.135
 H     34  33  32   2.178031   109.033    42.287
 H     34  33  32   2.177605   109.000   282.722
 H     33  32  28   2.181159   106.380   300.675
 H     33  32  28   2.179336   107.426    57.839
 H     32  28  27   2.206527   109.468   159.693
 H     32  28  27   2.200192   110.060   278.741
 C     34  33  32   3.082873   107.501   162.598
 C     41  34  33   3.184278   119.720   171.248
 C     42  41  34   3.179947   111.336   265.326
 H     43  42  41   2.185821   109.317   186.276
 H     43  42  41   2.185541   109.374    65.973
 H     43  42  41   2.188171   109.176   306.078
 H     42  41  34   2.173970   109.301    25.871
 H     42  41  34   2.176848   108.697   145.772
 H     41  34  33   2.190086   108.383    48.427
 H     41  34  33   2.195934   107.555   291.980
 H      1   2   3   2.003108   127.259   180.000
 H      4   3   2   2.003099   127.206   180.000
 H     26  23  17   2.003111    84.628   266.126
 H     29  28  27   2.003112   127.206   179.999

----------------------------
SLATER BASIS SET DIM= 120
----------------------------
  0 C     2 shells
 l=0 nsto= 1
    2       1.625000000000        1.000000000000
 l=1 nsto= 1
    2       1.625000000000        1.000000000000
  1 C     2 shells
 l=0 nsto= 1
    2       1.625000000000        1.000000000000
 l=1 nsto= 1
    2       1.625000000000        1.000000000000
  2 C     2 shells
 l=0 nsto= 1
    2       1.625000000000        1.000000000000
 l=1 nsto= 1
    2       1.625000000000        1.000000000000
  3 C     2 shells
 l=0 nsto= 1
    2       1.625000000000        1.000000000000
 l=1 nsto= 1
    2       1.625000000000        1.000000000000
  4 S     2 shells
 l=0 nsto= 1
    3       1.925000000000        1.000000000000
 l=1 nsto= 1
    3       1.925000000000        1.000000000000
  5 H     1 shells
 l=0 nsto= 1
    1       1.200000000000        1.000000000000
  6 C     2 shells
 l=0 nsto= 1
    2       1.625000000000        1.000000000000
 l=1 nsto= 1
    2       1.625000000000        1.000000000000
  7 C     2 shells
 l=0 nsto= 1
    2       1.625000000000        1.000000000000
 l=1 nsto= 1
    2       1.625000000000        1.000000000000
  8 C     2 shells
 l=0 nsto= 1
    2       1.625000000000        1.000000000000
 l=1 nsto= 1
    2       1.625000000000        1.000000000000
  9 H     1 shells
 l=0 nsto= 1
    1       1.200000000000        1.000000000000
 10 H     1 shells
 l=0 nsto= 1
    1       1.200000000000        1.000000000000
 11 H     1 shells
 l=0 nsto= 1
    1       1.200000000000        1.000000000000
 12 H     1 shells
 l=0 nsto= 1
    1       1.200000000000        1.000000000000
 13 H     1 shells
 l=0 nsto= 1
    1       1.200000000000        1.000000000000
 14 H     1 shells
 l=0 nsto= 1
    1       1.200000000000        1.000000000000
 15 C     2 shells
 l=0 nsto= 1
    2       1.625000000000        1.000000000000
 l=1 nsto= 1
    2       1.625000000000        1.000000000000
 16 C     2 shells
 l=0 nsto= 1
    2       1.625000000000        1.000000000000
 l=1 nsto= 1
    2       1.625000000000        1.000000000000
 17 C     2 shells
 l=0 nsto= 1
    2       1.625000000000        1.000000000000
 l=1 nsto= 1
    2       1.625000000000        1.000000000000
 18 H     1 shells
 l=0 nsto= 1
    1       1.200000000000        1.000000000000
 19 H     1 shells
 l=0 nsto= 1
    1       1.200000000000        1.000000000000
 20 H     1 shells
 l=0 nsto= 1
    1       1.200000000000        1.000000000000
 21 H     1 shells
 l=0 nsto= 1
    1       1.200000000000        1.000000000000
 22 H     1 shells
 l=0 nsto= 1
    1       1.200000000000        1.000000000000
 23 H     1 shells
 l=0 nsto= 1
    1       1.200000000000        1.000000000000
 24 H     1 shells
 l=0 nsto= 1
    1       1.200000000000        1.000000000000
 25 C     2 shells
 l=0 nsto= 1
    2       1.625000000000        1.000000000000
 l=1 nsto= 1
    2       1.625000000000        1.000000000000
 26 C     2 shells
 l=0 nsto= 1
    2       1.625000000000        1.000000000000
 l=1 nsto= 1
    2       1.625000000000        1.000000000000
 27 C     2 shells
 l=0 nsto= 1
    2       1.625000000000        1.000000000000
 l=1 nsto= 1
    2       1.625000000000        1.000000000000
 28 C     2 shells
 l=0 nsto= 1
    2       1.625000000000        1.000000000000
 l=1 nsto= 1
    2       1.625000000000        1.000000000000
 29 S     2 shells
 l=0 nsto= 1
    3       1.925000000000        1.000000000000
 l=1 nsto= 1
    3       1.925000000000        1.000000000000
 30 H     1 shells
 l=0 nsto= 1
    1       1.200000000000        1.000000000000
 31 C     2 shells
 l=0 nsto= 1
    2       1.625000000000        1.000000000000
 l=1 nsto= 1
    2       1.625000000000        1.000000000000
 32 C     2 shells
 l=0 nsto= 1
    2       1.625000000000        1.000000000000
 l=1 nsto= 1
    2       1.625000000000        1.000000000000
 33 C     2 shells
 l=0 nsto= 1
    2       1.625000000000        1.000000000000
 l=1 nsto= 1
    2       1.625000000000        1.000000000000
 34 H     1 shells
 l=0 nsto= 1
    1       1.200000000000        1.000000000000
 35 H     1 shells
 l=0 nsto= 1
    1       1.200000000000        1.000000000000
 36 H     1 shells
 l=0 nsto= 1
    1       1.200000000000        1.000000000000
 37 H     1 shells
 l=0 nsto= 1
    1       1.200000000000        1.000000000000
 38 H     1 shells
 l=0 nsto= 1
    1       1.200000000000        1.000000000000
 39 H     1 shells
 l=0 nsto= 1
    1       1.200000000000        1.000000000000
 40 C     2 shells
 l=0 nsto= 1
    2       1.625000000000        1.000000000000
 l=1 nsto= 1
    2       1.625000000000        1.000000000000
 41 C     2 shells
 l=0 nsto= 1
    2       1.625000000000        1.000000000000
 l=1 nsto= 1
    2       1.625000000000        1.000000000000
 42 C     2 shells
 l=0 nsto= 1
    2       1.625000000000        1.000000000000
 l=1 nsto= 1
    2       1.625000000000        1.000000000000
 43 H     1 shells
 l=0 nsto= 1
    1       1.200000000000        1.000000000000
 44 H     1 shells
 l=0 nsto= 1
    1       1.200000000000        1.000000000000
 45 H     1 shells
 l=0 nsto= 1
    1       1.200000000000        1.000000000000
 46 H     1 shells
 l=0 nsto= 1
    1       1.200000000000        1.000000000000
 47 H     1 shells
 l=0 nsto= 1
    1       1.200000000000        1.000000000000
 48 H     1 shells
 l=0 nsto= 1
    1       1.200000000000        1.000000000000
 49 H     1 shells
 l=0 nsto= 1
    1       1.200000000000        1.000000000000
 50 H     1 shells
 l=0 nsto= 1
    1       1.200000000000        1.000000000000
 51 H     1 shells
 l=0 nsto= 1
    1       1.200000000000        1.000000000000
 52 H     1 shells
 l=0 nsto= 1
    1       1.200000000000        1.000000000000
 53 H     1 shells
 l=0 nsto= 1
    1       1.200000000000        1.000000000000
------------------------------------------------------------------------------
                           ORCA NDO INTEGRAL CALCULATION
------------------------------------------------------------------------------

--------------
NDO PARAMETERS
--------------

Gamma integral treatment              ... Mataga-Nishimoto
Nuclear repulsuion treatment          ... Direct (ZA*ZB/RAB)
Interaction factors:
s-s (sigma) =    1.0000
s-p (sigma) =    1.0000
s-d (sigma) =    1.0000
p-p (sigma) =    1.2670  p-p(pi) =    0.5850
p-d (sigma) =    1.0000  p-d(pi) =    1.0000
d-d (sigma) =    1.0000  d-d(pi) =    1.0000 d-d (delta) =    1.0000

fGamma parameter for Mataga-Nishimoto gamma integrals:    1.2000

--------------------------
Parameters for Element H :
--------------------------
 One-electron parameters (in eV)
  U(s)  =   -13.060000 Beta(s) =    12.000000 Neff(s) =     1.000000
 One-center electron repulsion parameters (in eV)
  G(s,s)=    12.850000
--------------------------
Parameters for Element C :
--------------------------
 One-electron parameters (in eV)
  U(s)  =   -50.870766 Beta(s) =    17.000000 Neff(s) =     2.000000
  U(p)  =   -41.599980 Beta(p) =    17.000000 Neff(p) =     2.000000 
 One-center electron repulsion parameters (in eV)
  G(s,s)=    11.110000
  G(s,p)=    11.110000 G(p,p)  =    11.110000
 Slater-Condon parameters (in eV)
 F2(p,p)=     4.5098 G1(s,p)=    6.8977
--------------------------
Parameters for Element S :
--------------------------
 One-electron parameters (in eV)
  U(s)  =   -69.509597 Beta(s) =    15.000000 Neff(s) =     2.000000
  U(p)  =   -60.725746 Beta(p) =    15.000000 Neff(p) =     4.000000 
 One-center electron repulsion parameters (in eV)
  G(s,s)=    10.090000
  G(s,p)=    10.090000 G(p,p)  =    10.090000
 Slater-Condon parameters (in eV)
 F2(p,p)=     4.5377 G1(s,p)=    3.0756

 Number of atoms                    ....   54
 Number of basis functions          ....  120

 Overlap integrals                  .... done
 One electron matrix                .... done
 Nuclear repulsion                  .... done
 Integral list                      .... done
 Electron-electron repulsion        .... done
-------------------------------------------------------------------------------
                                 ORCA SCF
-------------------------------------------------------------------------------

------------
SCF SETTINGS
------------
Hamiltonian:
 ZDO-Hamiltonian        Method          .... INDO


General Settings:
 Integral files         IntName         .... /Users/mattyjones/GoogleDrive/Boise/Code/MorphCT/tests/output_EZ/donor_polymer/chromophores/input_orca/pair/00003-00028
 Hartree-Fock type      HFTyp           .... RHF
 Total Charge           Charge          ....    0
 Multiplicity           Mult            ....    1
 Number of Electrons    NEL             ....  124
 Basis Dimension        Dim             ....  120
 Nuclear Repulsion      ENuc            ....    632.7456829977 Eh

Convergence Acceleration:
 DIIS                   CNVDIIS         .... on
   Start iteration      DIISMaxIt       ....    12
   Startup error        DIISStart       ....  0.200000
   # of expansion vecs  DIISMaxEq       ....     5
   Bias factor          DIISBfac        ....   1.050
   Max. coefficient     DIISMaxC        ....  10.000
 Newton-Raphson         CNVNR           .... off
 SOSCF                  CNVSOSCF        .... on
   Start iteration      SOSCFMaxIt      ....   150
   Startup grad/error   SOSCFStart      ....  0.003300
 Level Shifting         CNVShift        .... on
   Level shift para.    LevelShift      ....    0.2500
   Turn off err/grad.   ShiftErr        ....    0.0010
 Zerner damping         CNVZerner       .... off
 Static damping         CNVDamp         .... on
   Fraction old density DampFac         ....    0.7000
   Max. Damping (<1)    DampMax         ....    0.9800
   Min. Damping (>=0)   DampMin         ....    0.0000
   Turn off err/grad.   DampErr         ....    0.1000
 Fernandez-Rico         CNVRico         .... off

SCF Procedure:
 Maximum # iterations   MaxIter         ....   125
 SCF integral mode      SCFMode         .... Conventional
 Integral Buffer length BufferLength    .... 1048576
 Integral index format  IndFormat       ....     0
 Integral value format  ValFormat       ....     0
 Integral Storage       Thresh          ....  1.000e-08 Eh

Convergence Tolerance:
 Convergence Check Mode ConvCheckMode   .... Total+1el-Energy
 Energy Change          TolE            ....  1.000e-06 Eh
 1-El. energy change                    ....  1.000e-03 Eh
 Orbital Gradient       TolG            ....  5.000e-05
 Orbital Rotation angle TolX            ....  5.000e-05
 DIIS Error             TolErr          ....  1.000e-06


Diagonalization of the overlap matrix:
Smallest eigenvalue                        ... 1.692e-01
Time for diagonalization                   ...    0.003 sec
Threshold for overlap eigenvalues          ... 1.000e-08
Number of eigenvalues below threshold      ... 0
Time for construction of square roots      ...    0.001 sec
Total time needed                          ...    0.004 sec

-------------------------------
INITIAL GUESS: EXTENDED HUECKEL
-------------------------------
EHT matrix was read from disk
EHT matrix was diagonalized
Initial density was built
                      ------------------
                      INITIAL GUESS DONE
                      ------------------

 InCore treatment chosen:
   Memory dedicated               ...    1024 MB
   Memory needed                  ...      0 MB
   Number of tiny    integrals    ...       0
   Number of small   integrals    ...       0
   Number of regular integrals    ...    7392

--------------
SCF ITERATIONS
--------------
ITER       Energy         Delta-E        Max-DP      RMS-DP      [F,P]     Damp
  0    -21.3308197571   0.000000000000 0.04354137  0.00146950  0.1108443 0.7000
  1    -21.3736354150  -0.042815657915 0.04074958  0.00138545  0.0760025 0.7000
                               ***Turning on DIIS***
  2    -21.4052715145  -0.031636099500 0.10215931  0.00355437  0.0501991 0.0000
  3    -21.4879695161  -0.082698001588 0.01991883  0.00073418  0.0224208 0.0000
  4    -21.4721654997   0.015804016410 0.01161704  0.00050929  0.0068727 0.0000
  5    -21.4898553008  -0.017689801080 0.00785010  0.00034718  0.0039457 0.0000
  6    -21.4919546449  -0.002099344115 0.00587031  0.00024878  0.0021244 0.0000
                      *** Initiating the SOSCF procedure ***
                           *** Shutting down DIIS ***
                      *** Re-Reading the Fockian *** 
                      *** Removing any level shift *** 
ITER      Energy       Delta-E        Grad      Rot      Max-DP    RMS-DP
  7    -21.48825952   0.0036951285  0.003150  0.003150  0.003507  0.000142
  8    -21.48627940   0.0019801194  0.000900  0.002538  0.001695  0.000067
  9    -21.48629598  -0.0000165821  0.000402  0.002559  0.001929  0.000073
 10    -21.48630232  -0.0000063442  0.000036  0.000067  0.000138  0.000004
                 **** Energy Check signals convergence ****
              ***Rediagonalizing the Fockian in SOSCF/NRSCF***

               *****************************************************
               *                     SUCCESS                       *
               *           SCF CONVERGED AFTER  11 CYCLES          *
               *****************************************************


----------------
TOTAL SCF ENERGY
----------------

Total Energy       :          -21.48630238 Eh            -584.67201 eV

Components:
Nuclear Repulsion  :          632.74568300 Eh           17217.88537 eV
Electronic Energy  :         -654.23198538 Eh          -17802.55739 eV

One Electron Energy:        -1218.07111836 Eh          -33145.40021 eV
Two Electron Energy:          563.83913298 Eh           15342.84282 eV


---------------
SCF CONVERGENCE
---------------

  Last Energy change         ...   -5.9363e-08  Tolerance :   1.0000e-06
  Last MAX-Density change    ...    5.7837e-05  Tolerance :   1.0000e-05
  Last RMS-Density change    ...    1.5527e-06  Tolerance :   1.0000e-06
  Last Orbital Gradient      ...    1.1303e-05  Tolerance :   5.0000e-05
  Last Orbital Rotation      ...    2.7991e-05  Tolerance :   5.0000e-05

             **** THE GBW FILE WAS UPDATED (/Users/mattyjones/GoogleDrive/Boise/Code/MorphCT/tests/output_EZ/donor_polymer/chromophores/input_orca/pair/00003-00028.gbw) ****
             **** DENSITY FILE WAS UPDATED (/Users/mattyjones/GoogleDrive/Boise/Code/MorphCT/tests/output_EZ/donor_polymer/chromophores/input_orca/pair/00003-00028.scfp.tmp) ****
             **** ENERGY FILE WAS UPDATED (/Users/mattyjones/GoogleDrive/Boise/Code/MorphCT/tests/output_EZ/donor_polymer/chromophores/input_orca/pair/00003-00028.en.tmp) ****
----------------
ORBITAL ENERGIES
----------------

  NO   OCC          E(Eh)            E(eV) 
   0   2.0000      -1.558330       -42.4043 
   1   2.0000      -1.557092       -42.3706 
   2   2.0000      -1.412987       -38.4493 
   3   2.0000      -1.405134       -38.2356 
   4   2.0000      -1.297173       -35.2979 
   5   2.0000      -1.279234       -34.8097 
   6   2.0000      -1.191254       -32.4157 
   7   2.0000      -1.186809       -32.2947 
   8   2.0000      -1.113944       -30.3120 
   9   2.0000      -1.098544       -29.8929 
  10   2.0000      -1.029250       -28.0073 
  11   2.0000      -1.023717       -27.8567 
  12   2.0000      -0.983669       -26.7670 
  13   2.0000      -0.953004       -25.9326 
  14   2.0000      -0.912230       -24.8230 
  15   2.0000      -0.897735       -24.4286 
  16   2.0000      -0.868780       -23.6407 
  17   2.0000      -0.847795       -23.0697 
  18   2.0000      -0.833266       -22.6743 
  19   2.0000      -0.821228       -22.3468 
  20   2.0000      -0.774436       -21.0735 
  21   2.0000      -0.770232       -20.9591 
  22   2.0000      -0.729672       -19.8554 
  23   2.0000      -0.726323       -19.7643 
  24   2.0000      -0.715321       -19.4649 
  25   2.0000      -0.698239       -19.0001 
  26   2.0000      -0.680541       -18.5185 
  27   2.0000      -0.664948       -18.0942 
  28   2.0000      -0.639373       -17.3982 
  29   2.0000      -0.638783       -17.3822 
  30   2.0000      -0.638013       -17.3612 
  31   2.0000      -0.608811       -16.5666 
  32   2.0000      -0.586842       -15.9688 
  33   2.0000      -0.586124       -15.9492 
  34   2.0000      -0.579281       -15.7630 
  35   2.0000      -0.567453       -15.4412 
  36   2.0000      -0.566530       -15.4161 
  37   2.0000      -0.566101       -15.4044 
  38   2.0000      -0.559747       -15.2315 
  39   2.0000      -0.547887       -14.9088 
  40   2.0000      -0.532560       -14.4917 
  41   2.0000      -0.528988       -14.3945 
  42   2.0000      -0.522317       -14.2130 
  43   2.0000      -0.517880       -14.0922 
  44   2.0000      -0.512370       -13.9423 
  45   2.0000      -0.500022       -13.6063 
  46   2.0000      -0.496878       -13.5207 
  47   2.0000      -0.491346       -13.3702 
  48   2.0000      -0.488868       -13.3028 
  49   2.0000      -0.485213       -13.2033 
  50   2.0000      -0.477661       -12.9978 
  51   2.0000      -0.473816       -12.8932 
  52   2.0000      -0.472479       -12.8568 
  53   2.0000      -0.467000       -12.7077 
  54   2.0000      -0.462872       -12.5954 
  55   2.0000      -0.459522       -12.5042 
  56   2.0000      -0.438479       -11.9316 
  57   2.0000      -0.434299       -11.8179 
  58   2.0000      -0.356980        -9.7139 
  59   2.0000      -0.351846        -9.5742 
  60   2.0000      -0.304795        -8.2939 
  61   2.0000      -0.304430        -8.2840 
  62   0.0000       0.002864         0.0779 
  63   0.0000       0.007889         0.2147 
  64   0.0000       0.056042         1.5250 
  65   0.0000       0.070204         1.9103 
  66   0.0000       0.075047         2.0421 
  67   0.0000       0.075888         2.0650 
  68   0.0000       0.091291         2.4842 
  69   0.0000       0.091998         2.5034 
  70   0.0000       0.103056         2.8043 
  71   0.0000       0.104955         2.8560 
  72   0.0000       0.108953         2.9648 
  73   0.0000       0.109095         2.9686 
  74   0.0000       0.124249         3.3810 
  75   0.0000       0.126986         3.4555 
  76   0.0000       0.141031         3.8377 
  77   0.0000       0.141687         3.8555 
  78   0.0000       0.154446         4.2027 
  79   0.0000       0.158297         4.3075 
  80   0.0000       0.164943         4.4883 
  81   0.0000       0.165720         4.5095 
  82   0.0000       0.171291         4.6611 
  83   0.0000       0.174867         4.7584 
  84   0.0000       0.199496         5.4286 
  85   0.0000       0.204576         5.5668 
  86   0.0000       0.231836         6.3086 
  87   0.0000       0.233811         6.3623 
  88   0.0000       0.234750         6.3879 
  89   0.0000       0.235597         6.4109 
  90   0.0000       0.236472         6.4347 
  91   0.0000       0.239230         6.5098 
  92   0.0000       0.239635         6.5208 
  93   0.0000       0.240748         6.5511 
  94   0.0000       0.241433         6.5697 
  95   0.0000       0.242497         6.5987 
  96   0.0000       0.242806         6.6071 
  97   0.0000       0.244460         6.6521 
  98   0.0000       0.244777         6.6607 
  99   0.0000       0.246150         6.6981 
 100   0.0000       0.247331         6.7302 
 101   0.0000       0.255321         6.9476 
 102   0.0000       0.260325         7.0838 
 103   0.0000       0.262664         7.1474 
 104   0.0000       0.265733         7.2309 
 105   0.0000       0.266973         7.2647 
 106   0.0000       0.287122         7.8130 
 107   0.0000       0.288561         7.8521 
 108   0.0000       0.299214         8.1420 
 109   0.0000       0.307560         8.3691 
 110   0.0000       0.309317         8.4169 
 111   0.0000       0.310320         8.4442 
 112   0.0000       0.334940         9.1142 
 113   0.0000       0.339529         9.2391 
 114   0.0000       0.354192         9.6381 
 115   0.0000       0.354406         9.6439 
 116   0.0000       0.400812        10.9066 
 117   0.0000       0.413820        11.2606 
 118   0.0000       0.429102        11.6765 
 119   0.0000       0.438351        11.9281 
-------
TIMINGS
-------

Total SCF time: 0 days 0 hours 0 min 0 sec 

Total time                  ....       0.125 sec
Sum of individual times     ....       0.101 sec  ( 81.1%)

Fock matrix formation       ....       0.051 sec  ( 40.6%)
Diagonalization             ....       0.024 sec  ( 19.4%)
Density matrix formation    ....       0.005 sec  (  4.1%)
Population analysis         ....       0.000 sec  (  0.0%)
Initial guess               ....       0.003 sec  (  2.4%)
Orbital Transformation      ....       0.000 sec  (  0.0%)
Orbital Orthonormalization  ....       0.000 sec  (  0.0%)
DIIS solution               ....       0.012 sec  (  9.8%)
SOSCF solution              ....       0.006 sec  (  4.7%)

-------------------------   --------------------
FINAL SINGLE POINT ENERGY       -21.486302382561
-------------------------   --------------------


                            ***************************************
                            *     ORCA property calculations      *
                            ***************************************

                                    ---------------------
                                    Active property flags
                                    ---------------------
   (+) Dipole Moment


------------------------------------------------------------------------------
                       ORCA ELECTRIC PROPERTIES CALCULATION
------------------------------------------------------------------------------

Dipole Moment Calculation                       ... on
Quadrupole Moment Calculation                   ... off
Polarizability Calculation                      ... off
GBWName                                         ... /Users/mattyjones/GoogleDrive/Boise/Code/MorphCT/tests/output_EZ/donor_polymer/chromophores/input_orca/pair/00003-00028.gbw
Electron density file                           ... /Users/mattyjones/GoogleDrive/Boise/Code/MorphCT/tests/output_EZ/donor_polymer/chromophores/input_orca/pair/00003-00028.scfp.tmp

-------------
DIPOLE MOMENT
-------------
                                X             Y             Z
Electronic contribution:   -190.61161    -193.11280     -99.61647
Nuclear contribution   :     99.09686     102.88930      51.28555
                        -----------------------------------------
Total Dipole Moment    :    -91.51475     -90.22350     -48.33093
                        -----------------------------------------
Magnitude (a.u.)       :    137.29934
Magnitude (Debye)      :    348.98718


Timings for individual modules:

Sum of individual times         ...        0.205 sec (=   0.003 min)
STO integral calculation        ...        0.040 sec (=   0.001 min)  19.4 %
SCF iterations                  ...        0.166 sec (=   0.003 min)  80.6 %
                             ****ORCA TERMINATED NORMALLY****
TOTAL RUN TIME: 0 days 0 hours 0 minutes 0 seconds 718 msec

