
                                 *****************
                                 * O   R   C   A *
                                 *****************

           --- An Ab Initio, DFT and Semiempirical electronic structure package ---

                  #######################################################
                  #                        -***-                        #
                  #  Department of molecular theory and spectroscopy    #
                  #              Directorship: Frank Neese              #
                  # Max Planck Institute for Chemical Energy Conversion #
                  #                  D-45470 Muelheim/Ruhr              #
                  #                       Germany                       #
                  #                                                     #
                  #                  All rights reserved                #
                  #                        -***-                        #
                  #######################################################


                         Program Version 3.0.3 - RELEASE   -


 With contributions from (in alphabetic order):
   Ute Becker             : Parallelization
   Dmytro Bykov           : SCF Hessian
   Dmitry Ganyushin       : Spin-Orbit,Spin-Spin,Magnetic field MRCI
   Andreas Hansen         : Spin unrestricted coupled pair/coupled cluster methods
   Dimitrios Liakos       : Extrapolation schemes; parallel MDCI
   Robert Izsak           : Overlap fitted RIJCOSX, COSX-SCS-MP3
   Christian Kollmar      : KDIIS, OOCD, Brueckner-CCSD(T), CCSD density
   Simone Kossmann        : Meta GGA functionals, TD-DFT gradient, OOMP2, MP2 Hessian
   Taras Petrenko         : DFT Hessian,TD-DFT gradient, ASA and ECA modules, normal mode analysis, Resonance Raman, ABS, FL, XAS/XES, NRVS
   Christoph Reimann      : Effective Core Potentials
   Michael Roemelt        : Restricted open shell CIS
   Christoph Riplinger    : Improved optimizer, TS searches, QM/MM, DLPNO-CCSD
   Barbara Sandhoefer     : DKH picture change effects
   Igor Schapiro          : Molecular dynamics
   Kantharuban Sivalingam : CASSCF convergence, NEVPT2
   Boris Wezisla          : Elementary symmetry handling
   Frank Wennmohs         : Technical directorship


 We gratefully acknowledge several colleagues who have allowed us to
 interface, adapt or use parts of their codes:
   Stefan Grimme, W. Hujo, H. Kruse, T. Risthaus : VdW corrections, initial TS optimization,
                                                   DFT functionals, gCP
   Ed Valeev                                     : LibInt (2-el integral package), F12 methods
   Garnet Chan, S. Sharma, R. Olivares           : DMRG
   Ulf Ekstrom                                   : XCFun DFT Library
   Mihaly Kallay                                 : mrcc  (arbitrary order and MRCC methods)
   Andreas Klamt, Michael Diedenhofen            : otool_cosmo (COSMO solvation model)
   Frank Weinhold                                : gennbo (NPA and NBO analysis)
   Christopher J. Cramer and Donald G. Truhlar   : smd solvation model


 Your calculation uses the libint2 library for the computation of 2-el integrals
 For citations please refer to: http://libint.valeyev.net

 This ORCA versions uses:
   CBLAS   interface :  Fast vector & matrix operations
   LAPACKE interface :  Fast linear algebra routines
   SCALAPACK package :  Parallel linear algebra routines


leaving
================================================================================
                                        WARNINGS
                       Please study these warnings very carefully!
================================================================================
Now building the actual basis set

WARNING: Direct SCF is incompatible with Method<>HF and Method<>DFT
  ===> : conventional SCF is chosen

WARNING: The NDO methods need Guess=HUECKEL or Guess=HCORE or Guess=MOREAD
  ===> : Guess is set to Hueckel

WARNING: The NDO methods need %rel::SOCType==1
  ===> : %rel::SOCType is set to 1

WARNING: The NDO methods cannot have frozencore=1
  ===> : %method FrozenCore=0 end


INFO   : the flag for use of LIBINT has been found!

================================================================================
                                       INPUT FILE
================================================================================
NAME = /Users/mattyjones/GoogleDrive/Boise/Code/MorphCT/tests/output_EZ/donor_polymer/chromophores/input_orca/pair/00007-00019.inp
|  1> # ================================================================
|  2> # Orca input file made by Matty Jones
|  3> # ================================================================
|  4> ! ZINDO/S 
|  5> ! NOPOP
|  6> ! NOMOPRINT
|  7> * xyz 0   1
|  8>  C  18.60108  2.59476  2.95753
|  9>  C  19.79836  2.95962  2.34002
| 10>  C  20.96977  2.51819  3.03081
| 11>  C  20.69610  1.80115  4.19968
| 12>  S  19.04244  1.75174  4.31533
| 13>  H  20.06288  2.93803  1.18269
| 14>  C  22.42518  2.89203  2.42009
| 15>  C  22.79602  4.50588  1.91503
| 16>  C  22.43917  5.11788  0.35215
| 17>  H  22.87746  4.37070  -0.41072
| 18>  H  21.28931  5.13326  0.25192
| 19>  H  22.24476  5.19537  2.65571
| 20>  H  23.93415  4.62768  2.05094
| 21>  H  22.61734  2.23592  1.48450
| 22>  H  23.24627  2.63803  3.21053
| 23>  C  23.02522  6.61438  0.03644
| 24>  C  22.45299  7.47714  -1.31848
| 25>  C  23.19451  7.41761  -2.83242
| 26>  H  24.34208  7.37717  -2.70157
| 27>  H  22.90694  8.37139  -3.42582
| 28>  H  22.82679  6.48382  -3.40614
| 29>  H  21.35111  7.17602  -1.46596
| 30>  H  22.52365  8.57665  -1.00192
| 31>  H  22.82520  7.28692  0.95661
| 32>  H  24.17172  6.52884  -0.10869
| 33>  C  -17.26987  -3.64207  -2.62666
| 34>  C  -18.30110  -4.47970  -2.19904
| 35>  C  -19.37735  -3.79682  -1.55125
| 36>  C  -19.19505  -2.41300  -1.46693
| 37>  S  -17.73241  -2.11143  -2.18816
| 38>  H  -18.28449  -5.60967  -2.36094
| 39>  C  -20.55237  -4.79637  -1.07180
| 40>  C  -22.17274  -4.61791  -1.49696
| 41>  C  -23.22334  -3.77400  -0.50811
| 42>  H  -22.64549  -2.91977  0.00477
| 43>  H  -24.06682  -3.32747  -1.15916
| 44>  H  -22.18091  -4.08780  -2.52700
| 45>  H  -22.59988  -5.68315  -1.63649
| 46>  H  -20.55585  -4.79546  0.10037
| 47>  H  -20.28665  -5.88995  -1.39556
| 48>  C  -23.85230  -4.76636  0.62633
| 49>  C  -25.18980  -5.70543  0.18081
| 50>  C  -24.83791  -7.27186  -0.33472
| 51>  H  -24.10244  -7.76291  0.41182
| 52>  H  -24.36424  -7.23975  -1.38861
| 53>  H  -25.81854  -7.88620  -0.36975
| 54>  H  -25.73640  -5.16562  -0.67799
| 55>  H  -25.88790  -5.78136  1.09444
| 56>  H  -23.02828  -5.50023  0.98000
| 57>  H  -24.18138  -4.12490  1.53244
| 58>  H  17.61710  2.81100  2.62796
| 59>  H  21.39853  1.37780  4.87123
| 60>  H  -16.37885  -3.92483  -3.12639
| 61>  H  -19.85378  -1.70498  -1.03291
| 62> *
| 63> 
| 64>                          ****END OF INPUT****
================================================================================

                       ****************************
                       * Single Point Calculation *
                       ****************************

---------------------------------
CARTESIAN COORDINATES (ANGSTROEM)
---------------------------------
  C     18.601080    2.594760    2.957530
  C     19.798360    2.959620    2.340020
  C     20.969770    2.518190    3.030810
  C     20.696100    1.801150    4.199680
  S     19.042440    1.751740    4.315330
  H     20.062880    2.938030    1.182690
  C     22.425180    2.892030    2.420090
  C     22.796020    4.505880    1.915030
  C     22.439170    5.117880    0.352150
  H     22.877460    4.370700   -0.410720
  H     21.289310    5.133260    0.251920
  H     22.244760    5.195370    2.655710
  H     23.934150    4.627680    2.050940
  H     22.617340    2.235920    1.484500
  H     23.246270    2.638030    3.210530
  C     23.025220    6.614380    0.036440
  C     22.452990    7.477140   -1.318480
  C     23.194510    7.417610   -2.832420
  H     24.342080    7.377170   -2.701570
  H     22.906940    8.371390   -3.425820
  H     22.826790    6.483820   -3.406140
  H     21.351110    7.176020   -1.465960
  H     22.523650    8.576650   -1.001920
  H     22.825200    7.286920    0.956610
  H     24.171720    6.528840   -0.108690
  C    -17.269870   -3.642070   -2.626660
  C    -18.301100   -4.479700   -2.199040
  C    -19.377350   -3.796820   -1.551250
  C    -19.195050   -2.413000   -1.466930
  S    -17.732410   -2.111430   -2.188160
  H    -18.284490   -5.609670   -2.360940
  C    -20.552370   -4.796370   -1.071800
  C    -22.172740   -4.617910   -1.496960
  C    -23.223340   -3.774000   -0.508110
  H    -22.645490   -2.919770    0.004770
  H    -24.066820   -3.327470   -1.159160
  H    -22.180910   -4.087800   -2.527000
  H    -22.599880   -5.683150   -1.636490
  H    -20.555850   -4.795460    0.100370
  H    -20.286650   -5.889950   -1.395560
  C    -23.852300   -4.766360    0.626330
  C    -25.189800   -5.705430    0.180810
  C    -24.837910   -7.271860   -0.334720
  H    -24.102440   -7.762910    0.411820
  H    -24.364240   -7.239750   -1.388610
  H    -25.818540   -7.886200   -0.369750
  H    -25.736400   -5.165620   -0.677990
  H    -25.887900   -5.781360    1.094440
  H    -23.028280   -5.500230    0.980000
  H    -24.181380   -4.124900    1.532440
  H     17.617100    2.811000    2.627960
  H     21.398530    1.377800    4.871230
  H    -16.378850   -3.924830   -3.126390
  H    -19.853780   -1.704980   -1.032910

----------------------------
CARTESIAN COORDINATES (A.U.)
----------------------------
  NO LB      ZA    FRAG    MASS        X           Y           Z
   0 C     4.0000    0    12.011         35.150946995159913          4.903385783253507          5.588921732856120
   1 C     4.0000    0    12.011         37.413478300781151          5.592871260476015          4.421996947898407
   2 C     4.0000    0    12.011         39.627122391317847          4.758689453179157          5.727400863949868
   3 C     4.0000    0    12.011         39.109961040247619          3.403680226112262          7.936245050106402
   4 S     6.0000    0    32.060         35.984996521627394          3.310308857835214          8.154791877494395
   5 H     1.0000    0     1.008         37.913348657726004          5.552072073244655          2.234960201327325
   6 C     4.0000    0    12.011         42.377448703888177          5.465144671084277          4.573307319441482
   7 C     4.0000    0    12.011         43.078234743391526          8.514879192313090          3.618882238243215
   8 C     4.0000    0    12.011         42.403885972501733          9.671391586272897          0.665467058060369
   9 H     1.0000    0     1.008         43.232134039738078          8.259426013529614         -0.776148317724136
  10 H     1.0000    0     1.008         40.230965480151042          9.700455574212604          0.476059807657442
  11 H     1.0000    0     1.008         42.036504314806102          9.817826464390453          5.018564591116007
  12 H     1.0000    0     1.008         45.228988748191327          8.745047835424698          3.875714917104452
  13 H     1.0000    0     1.008         42.740578477782478          4.225276457357205          2.805298445806098
  14 H     1.0000    0     1.008         43.929083935189574          4.985154233068280          6.067022444738196
  15 C     4.0000    0    12.011         43.511359973286282         12.499366745686048          0.068861620320090
  16 C     4.0000    0    12.011         42.430001987672526         14.129746864987949         -2.491566113052492
  17 C     4.0000    0    12.011         43.831271710497816         14.017251468235616         -5.352498096241232
  18 H     1.0000    0     1.008         45.999864730001818         13.940830943379840         -5.105227431617635
  19 H     1.0000    0     1.008         43.287843166166077         15.819634460247027         -6.473861584110102
  20 H     1.0000    0     1.008         43.136381616532283         12.252644101641289         -6.436671773794532
  21 H     1.0000    0     1.008         40.347750555227371         13.560712531541581         -2.770262923283198
  22 H     1.0000    0     1.008         42.563530036295397         16.207519646495705         -1.893354408098380
  23 H     1.0000    0     1.008         43.133376951979351         13.770283159793447          1.807730916970409
  24 H     1.0000    0     1.008         45.677930985826997         12.337719572190425         -0.205394333495901
  25 C     4.0000    0    12.011        -32.635324668422605         -6.882514860570573         -4.963668046925595
  26 C     4.0000    0    12.011        -34.584066949506223         -8.465406162127032         -4.155583357538189
  27 C     4.0000    0    12.011        -36.617884701138962         -7.174949979794887         -2.931437665245342
  28 C     4.0000    0    12.011        -36.273387626925121         -4.559909161151980         -2.772095957633102
  29 S     6.0000    0    32.060        -33.509398594406548         -3.990024450945348         -4.135023137201125
  30 H     1.0000    0     1.008        -34.552678598421792        -10.600740001674028         -4.461530018620040
  31 C     4.0000    0    12.011        -38.838350703019117         -9.063825736955874         -2.025408470336798
  32 C     4.0000    0    12.011        -41.900406238641096         -8.726585211096287         -2.828844433434757
  33 C     4.0000    0    12.011        -43.885752514938758         -7.131826429418804         -0.960188745906727
  34 H     1.0000    0     1.008        -42.793774268452360         -5.517565674039253          0.009013993658804
  35 H     1.0000    0     1.008        -45.479698714378657         -6.288007018838947         -2.190494945396158
  36 H     1.0000    0     1.008        -41.915845301155230         -7.724822490243292         -4.775337940419004
  37 H     1.0000    0     1.008        -42.707583859484217        -10.739597077994562         -3.092517920900789
  38 H     1.0000    0     1.008        -38.844926949965163         -9.062106086174007          0.189671812061676
  39 H     1.0000    0     1.008        -38.336212674713565        -11.130392442489477         -2.637226203455142
  40 C     4.0000    0    12.011        -45.074314664129872         -9.007115055676897          1.183592169458898
  41 C     4.0000    0    12.011        -47.601823368249548        -10.781700176258326          0.341681382274302
  42 C     4.0000    0    12.011        -46.936847638983998        -13.741823884216593         -0.632529131546121
  43 H     1.0000    0     1.008        -45.547010759268936        -14.669773902278623          0.778227016471450
  44 H     1.0000    0     1.008        -46.041741061129514        -13.681144778056382         -2.624092606824389
  45 H     1.0000    0     1.008        -48.789969777691191        -14.902758237329774         -0.698726238017383
  46 H     1.0000    0     1.008        -48.634747673050903         -9.761607111906295         -1.281215421537269
  47 H     1.0000    0     1.008        -48.921041182339970        -10.925187081606968          2.068191870008775
  48 H     1.0000    0     1.008        -43.517142535256077        -10.393928373577687          1.851931611242827
  49 H     1.0000    0     1.008        -45.696185740280676         -7.794931329811772          2.895891916666283
  50 H     1.0000    0     1.008         33.291494273904085          5.312020162452638          4.966124690899692
  51 H     1.0000    0     1.008         40.437361368497925          2.603664667316700          9.205290635341218
  52 H     1.0000    0     1.008        -30.951540888576094         -7.416853822198147         -5.908020887830062
  53 H     1.0000    0     1.008        -37.518206923123067         -3.221945263813056         -1.951917020988600

--------------------------------
INTERNAL COORDINATES (ANGSTROEM)
--------------------------------
 C      0   0   0   0.000000     0.000     0.000
 C      1   0   0   1.395679     0.000     0.000
 C      2   1   0   1.429774   114.102     0.000
 C      3   2   1   1.398320   113.693     0.000
 S      1   2   3   1.658042   105.479     0.000
 H      2   1   3   1.187371   128.142   138.175
 C      3   2   1   1.622021   118.821   180.569
 C      7   3   2   1.731219   121.125    47.939
 C      8   7   3   1.715949   123.617   273.832
 H      9   8   7   1.154273   106.985   308.062
 H      9   8   7   1.154323   106.917    64.998
 H      8   7   3   1.152341   105.532    35.464
 H      8   7   3   1.152669   105.998   151.542
 H      7   3   2   1.158764   108.802   286.444
 H      7   3   2   1.167690   109.022   169.046
 C      9   8   7   1.637877   115.279   186.479
 C     16   9   8   1.705172   119.695   193.922
 C     17  16   9   1.686834   123.214   267.895
 H     18  17  16   1.155714   109.640   322.486
 H     18  17  16   1.159533   108.739   202.855
 H     18  17  16   1.156000   109.518    83.401
 H     17  16   9   1.151765   106.889    32.579
 H     17  16   9   1.146353   104.193   149.244
 H     16   9   8   1.157165   108.415   315.882
 H     16   9   8   1.158811   108.102    73.042
 C      1   2   3  36.834851   144.350   203.742
 C     26   1   2   1.395678   140.779   143.637
 C     27  26   1   1.429780   114.101   117.569
 C     28  27  26   1.398321   113.694     0.000
 S     26   1   2   1.658036    94.316   264.686
 H     27  26   1   1.141630   122.672   297.199
 C     28  27  26   1.615439   112.735   179.934
 C     32  28  27   1.684698   123.997   234.489
 C     33  32  28   1.671457   120.580   267.116
 H     34  33  32   1.151810   108.817    33.386
 H     34  33  32   1.155298   108.703   152.337
 H     33  32  28   1.158476   106.239    28.692
 H     33  32  28   1.156137   106.750   143.950
 H     32  28  27   1.172176   107.366   112.744
 H     32  28  27   1.171044   109.312   358.030
 C     34  33  32   1.633194   110.256   273.222
 C     41  34  33   1.693885   117.274   276.739
 C     42  41  34   1.686209   115.508    95.320
 H     43  42  41   1.157311   109.242    47.273
 H     43  42  41   1.155889   109.783   286.762
 H     43  42  41   1.157703   108.992   166.796
 H     42  41  34   1.152260   108.112   334.445
 H     42  41  34   1.152315   107.840   216.092
 H     41  34  33   1.158731   108.843    38.173
 H     41  34  33   1.157929   108.445   155.798
 H      1   2   3   1.059997   127.260   180.000
 H      4   3   2   1.060006   127.206   180.000
 H     26   1   2   1.060000    45.416    45.772
 H     29  28  27   1.059996   127.207   180.000

---------------------------
INTERNAL COORDINATES (A.U.)
---------------------------
 C      0   0   0   0.000000     0.000     0.000
 C      1   0   0   2.637452     0.000     0.000
 C      2   1   0   2.701881   114.102     0.000
 C      3   2   1   2.642442   113.693     0.000
 S      1   2   3   3.133245   105.479     0.000
 H      2   1   3   2.243806   128.142   138.175
 C      3   2   1   3.065176   118.821   180.569
 C      7   3   2   3.271530   121.125    47.939
 C      8   7   3   3.242673   123.617   273.832
 H      9   8   7   2.181260   106.985   308.062
 H      9   8   7   2.181354   106.917    64.998
 H      8   7   3   2.177610   105.532    35.464
 H      8   7   3   2.178229   105.998   151.542
 H      7   3   2   2.189747   108.802   286.444
 H      7   3   2   2.206615   109.022   169.046
 C      9   8   7   3.095138   115.279   186.479
 C     16   9   8   3.222307   119.695   193.922
 C     17  16   9   3.187655   123.214   267.895
 H     18  17  16   2.183982   109.640   322.486
 H     18  17  16   2.191199   108.739   202.855
 H     18  17  16   2.184524   109.518    83.401
 H     17  16   9   2.176521   106.889    32.579
 H     17  16   9   2.166293   104.193   149.244
 H     16   9   8   2.186725   108.415   315.882
 H     16   9   8   2.189835   108.102    73.042
 C      1   2   3  69.607781   144.350   203.742
 C     26   1   2   2.637450   140.779   143.637
 C     27  26   1   2.701893   114.101   117.569
 C     28  27  26   2.642443   113.694     0.000
 S     26   1   2   3.133234    94.316   264.686
 H     27  26   1   2.157369   122.672   297.199
 C     28  27  26   3.052738   112.735   179.934
 C     32  28  27   3.183618   123.997   234.489
 C     33  32  28   3.158596   120.580   267.116
 H     34  33  32   2.176605   108.817    33.386
 H     34  33  32   2.183197   108.703   152.337
 H     33  32  28   2.189202   106.239    28.692
 H     33  32  28   2.184783   106.750   143.950
 H     32  28  27   2.215091   107.366   112.744
 H     32  28  27   2.212953   109.312   358.030
 C     34  33  32   3.086290   110.256   273.222
 C     41  34  33   3.200979   117.274   276.739
 C     42  41  34   3.186473   115.508    95.320
 H     43  42  41   2.187000   109.242    47.273
 H     43  42  41   2.184313   109.783   286.762
 H     43  42  41   2.187741   108.992   166.796
 H     42  41  34   2.177456   108.112   334.445
 H     42  41  34   2.177559   107.840   216.092
 H     41  34  33   2.189683   108.843    38.173
 H     41  34  33   2.188169   108.445   155.798
 H      1   2   3   2.003103   127.260   180.000
 H      4   3   2   2.003121   127.206   180.000
 H     26   1   2   2.003110    45.416    45.772
 H     29  28  27   2.003102   127.207   180.000

----------------------------
SLATER BASIS SET DIM= 120
----------------------------
  0 C     2 shells
 l=0 nsto= 1
    2       1.625000000000        1.000000000000
 l=1 nsto= 1
    2       1.625000000000        1.000000000000
  1 C     2 shells
 l=0 nsto= 1
    2       1.625000000000        1.000000000000
 l=1 nsto= 1
    2       1.625000000000        1.000000000000
  2 C     2 shells
 l=0 nsto= 1
    2       1.625000000000        1.000000000000
 l=1 nsto= 1
    2       1.625000000000        1.000000000000
  3 C     2 shells
 l=0 nsto= 1
    2       1.625000000000        1.000000000000
 l=1 nsto= 1
    2       1.625000000000        1.000000000000
  4 S     2 shells
 l=0 nsto= 1
    3       1.925000000000        1.000000000000
 l=1 nsto= 1
    3       1.925000000000        1.000000000000
  5 H     1 shells
 l=0 nsto= 1
    1       1.200000000000        1.000000000000
  6 C     2 shells
 l=0 nsto= 1
    2       1.625000000000        1.000000000000
 l=1 nsto= 1
    2       1.625000000000        1.000000000000
  7 C     2 shells
 l=0 nsto= 1
    2       1.625000000000        1.000000000000
 l=1 nsto= 1
    2       1.625000000000        1.000000000000
  8 C     2 shells
 l=0 nsto= 1
    2       1.625000000000        1.000000000000
 l=1 nsto= 1
    2       1.625000000000        1.000000000000
  9 H     1 shells
 l=0 nsto= 1
    1       1.200000000000        1.000000000000
 10 H     1 shells
 l=0 nsto= 1
    1       1.200000000000        1.000000000000
 11 H     1 shells
 l=0 nsto= 1
    1       1.200000000000        1.000000000000
 12 H     1 shells
 l=0 nsto= 1
    1       1.200000000000        1.000000000000
 13 H     1 shells
 l=0 nsto= 1
    1       1.200000000000        1.000000000000
 14 H     1 shells
 l=0 nsto= 1
    1       1.200000000000        1.000000000000
 15 C     2 shells
 l=0 nsto= 1
    2       1.625000000000        1.000000000000
 l=1 nsto= 1
    2       1.625000000000        1.000000000000
 16 C     2 shells
 l=0 nsto= 1
    2       1.625000000000        1.000000000000
 l=1 nsto= 1
    2       1.625000000000        1.000000000000
 17 C     2 shells
 l=0 nsto= 1
    2       1.625000000000        1.000000000000
 l=1 nsto= 1
    2       1.625000000000        1.000000000000
 18 H     1 shells
 l=0 nsto= 1
    1       1.200000000000        1.000000000000
 19 H     1 shells
 l=0 nsto= 1
    1       1.200000000000        1.000000000000
 20 H     1 shells
 l=0 nsto= 1
    1       1.200000000000        1.000000000000
 21 H     1 shells
 l=0 nsto= 1
    1       1.200000000000        1.000000000000
 22 H     1 shells
 l=0 nsto= 1
    1       1.200000000000        1.000000000000
 23 H     1 shells
 l=0 nsto= 1
    1       1.200000000000        1.000000000000
 24 H     1 shells
 l=0 nsto= 1
    1       1.200000000000        1.000000000000
 25 C     2 shells
 l=0 nsto= 1
    2       1.625000000000        1.000000000000
 l=1 nsto= 1
    2       1.625000000000        1.000000000000
 26 C     2 shells
 l=0 nsto= 1
    2       1.625000000000        1.000000000000
 l=1 nsto= 1
    2       1.625000000000        1.000000000000
 27 C     2 shells
 l=0 nsto= 1
    2       1.625000000000        1.000000000000
 l=1 nsto= 1
    2       1.625000000000        1.000000000000
 28 C     2 shells
 l=0 nsto= 1
    2       1.625000000000        1.000000000000
 l=1 nsto= 1
    2       1.625000000000        1.000000000000
 29 S     2 shells
 l=0 nsto= 1
    3       1.925000000000        1.000000000000
 l=1 nsto= 1
    3       1.925000000000        1.000000000000
 30 H     1 shells
 l=0 nsto= 1
    1       1.200000000000        1.000000000000
 31 C     2 shells
 l=0 nsto= 1
    2       1.625000000000        1.000000000000
 l=1 nsto= 1
    2       1.625000000000        1.000000000000
 32 C     2 shells
 l=0 nsto= 1
    2       1.625000000000        1.000000000000
 l=1 nsto= 1
    2       1.625000000000        1.000000000000
 33 C     2 shells
 l=0 nsto= 1
    2       1.625000000000        1.000000000000
 l=1 nsto= 1
    2       1.625000000000        1.000000000000
 34 H     1 shells
 l=0 nsto= 1
    1       1.200000000000        1.000000000000
 35 H     1 shells
 l=0 nsto= 1
    1       1.200000000000        1.000000000000
 36 H     1 shells
 l=0 nsto= 1
    1       1.200000000000        1.000000000000
 37 H     1 shells
 l=0 nsto= 1
    1       1.200000000000        1.000000000000
 38 H     1 shells
 l=0 nsto= 1
    1       1.200000000000        1.000000000000
 39 H     1 shells
 l=0 nsto= 1
    1       1.200000000000        1.000000000000
 40 C     2 shells
 l=0 nsto= 1
    2       1.625000000000        1.000000000000
 l=1 nsto= 1
    2       1.625000000000        1.000000000000
 41 C     2 shells
 l=0 nsto= 1
    2       1.625000000000        1.000000000000
 l=1 nsto= 1
    2       1.625000000000        1.000000000000
 42 C     2 shells
 l=0 nsto= 1
    2       1.625000000000        1.000000000000
 l=1 nsto= 1
    2       1.625000000000        1.000000000000
 43 H     1 shells
 l=0 nsto= 1
    1       1.200000000000        1.000000000000
 44 H     1 shells
 l=0 nsto= 1
    1       1.200000000000        1.000000000000
 45 H     1 shells
 l=0 nsto= 1
    1       1.200000000000        1.000000000000
 46 H     1 shells
 l=0 nsto= 1
    1       1.200000000000        1.000000000000
 47 H     1 shells
 l=0 nsto= 1
    1       1.200000000000        1.000000000000
 48 H     1 shells
 l=0 nsto= 1
    1       1.200000000000        1.000000000000
 49 H     1 shells
 l=0 nsto= 1
    1       1.200000000000        1.000000000000
 50 H     1 shells
 l=0 nsto= 1
    1       1.200000000000        1.000000000000
 51 H     1 shells
 l=0 nsto= 1
    1       1.200000000000        1.000000000000
 52 H     1 shells
 l=0 nsto= 1
    1       1.200000000000        1.000000000000
 53 H     1 shells
 l=0 nsto= 1
    1       1.200000000000        1.000000000000
------------------------------------------------------------------------------
                           ORCA NDO INTEGRAL CALCULATION
------------------------------------------------------------------------------

--------------
NDO PARAMETERS
--------------

Gamma integral treatment              ... Mataga-Nishimoto
Nuclear repulsuion treatment          ... Direct (ZA*ZB/RAB)
Interaction factors:
s-s (sigma) =    1.0000
s-p (sigma) =    1.0000
s-d (sigma) =    1.0000
p-p (sigma) =    1.2670  p-p(pi) =    0.5850
p-d (sigma) =    1.0000  p-d(pi) =    1.0000
d-d (sigma) =    1.0000  d-d(pi) =    1.0000 d-d (delta) =    1.0000

fGamma parameter for Mataga-Nishimoto gamma integrals:    1.2000

--------------------------
Parameters for Element H :
--------------------------
 One-electron parameters (in eV)
  U(s)  =   -13.060000 Beta(s) =    12.000000 Neff(s) =     1.000000
 One-center electron repulsion parameters (in eV)
  G(s,s)=    12.850000
--------------------------
Parameters for Element C :
--------------------------
 One-electron parameters (in eV)
  U(s)  =   -50.870766 Beta(s) =    17.000000 Neff(s) =     2.000000
  U(p)  =   -41.599980 Beta(p) =    17.000000 Neff(p) =     2.000000 
 One-center electron repulsion parameters (in eV)
  G(s,s)=    11.110000
  G(s,p)=    11.110000 G(p,p)  =    11.110000
 Slater-Condon parameters (in eV)
 F2(p,p)=     4.5098 G1(s,p)=    6.8977
--------------------------
Parameters for Element S :
--------------------------
 One-electron parameters (in eV)
  U(s)  =   -69.509597 Beta(s) =    15.000000 Neff(s) =     2.000000
  U(p)  =   -60.725746 Beta(p) =    15.000000 Neff(p) =     4.000000 
 One-center electron repulsion parameters (in eV)
  G(s,s)=    10.090000
  G(s,p)=    10.090000 G(p,p)  =    10.090000
 Slater-Condon parameters (in eV)
 F2(p,p)=     4.5377 G1(s,p)=    3.0756

 Number of atoms                    ....   54
 Number of basis functions          ....  120

 Overlap integrals                  .... done
 One electron matrix                .... done
 Nuclear repulsion                  .... done
 Integral list                      .... done
 Electron-electron repulsion        .... done
-------------------------------------------------------------------------------
                                 ORCA SCF
-------------------------------------------------------------------------------

------------
SCF SETTINGS
------------
Hamiltonian:
 ZDO-Hamiltonian        Method          .... INDO


General Settings:
 Integral files         IntName         .... /Users/mattyjones/GoogleDrive/Boise/Code/MorphCT/tests/output_EZ/donor_polymer/chromophores/input_orca/pair/00007-00019
 Hartree-Fock type      HFTyp           .... RHF
 Total Charge           Charge          ....    0
 Multiplicity           Mult            ....    1
 Number of Electrons    NEL             ....  124
 Basis Dimension        Dim             ....  120
 Nuclear Repulsion      ENuc            ....    632.1916724250 Eh

Convergence Acceleration:
 DIIS                   CNVDIIS         .... on
   Start iteration      DIISMaxIt       ....    12
   Startup error        DIISStart       ....  0.200000
   # of expansion vecs  DIISMaxEq       ....     5
   Bias factor          DIISBfac        ....   1.050
   Max. coefficient     DIISMaxC        ....  10.000
 Newton-Raphson         CNVNR           .... off
 SOSCF                  CNVSOSCF        .... on
   Start iteration      SOSCFMaxIt      ....   150
   Startup grad/error   SOSCFStart      ....  0.003300
 Level Shifting         CNVShift        .... on
   Level shift para.    LevelShift      ....    0.2500
   Turn off err/grad.   ShiftErr        ....    0.0010
 Zerner damping         CNVZerner       .... off
 Static damping         CNVDamp         .... on
   Fraction old density DampFac         ....    0.7000
   Max. Damping (<1)    DampMax         ....    0.9800
   Min. Damping (>=0)   DampMin         ....    0.0000
   Turn off err/grad.   DampErr         ....    0.1000
 Fernandez-Rico         CNVRico         .... off

SCF Procedure:
 Maximum # iterations   MaxIter         ....   125
 SCF integral mode      SCFMode         .... Conventional
 Integral Buffer length BufferLength    .... 1048576
 Integral index format  IndFormat       ....     0
 Integral value format  ValFormat       ....     0
 Integral Storage       Thresh          ....  1.000e-08 Eh

Convergence Tolerance:
 Convergence Check Mode ConvCheckMode   .... Total+1el-Energy
 Energy Change          TolE            ....  1.000e-06 Eh
 1-El. energy change                    ....  1.000e-03 Eh
 Orbital Gradient       TolG            ....  5.000e-05
 Orbital Rotation angle TolX            ....  5.000e-05
 DIIS Error             TolErr          ....  1.000e-06


Diagonalization of the overlap matrix:
Smallest eigenvalue                        ... 1.690e-01
Time for diagonalization                   ...    0.003 sec
Threshold for overlap eigenvalues          ... 1.000e-08
Number of eigenvalues below threshold      ... 0
Time for construction of square roots      ...    0.001 sec
Total time needed                          ...    0.004 sec

-------------------------------
INITIAL GUESS: EXTENDED HUECKEL
-------------------------------
EHT matrix was read from disk
EHT matrix was diagonalized
Initial density was built
                      ------------------
                      INITIAL GUESS DONE
                      ------------------

 InCore treatment chosen:
   Memory dedicated               ...    1024 MB
   Memory needed                  ...      0 MB
   Number of tiny    integrals    ...       0
   Number of small   integrals    ...       0
   Number of regular integrals    ...    7392

--------------
SCF ITERATIONS
--------------
ITER       Energy         Delta-E        Max-DP      RMS-DP      [F,P]     Damp
  0    -21.7148206202   0.000000000000 0.04500354  0.00147984  0.1225834 0.7000
  1    -21.7581212179  -0.043300597681 0.04337001  0.00139750  0.0838602 0.7000
                               ***Turning on DIIS***
  2    -21.7901314425  -0.032010224566 0.11230381  0.00359227  0.0508661 0.0000
  3    -21.8741012687  -0.083969826262 0.02246708  0.00074983  0.0227174 0.0000
  4    -21.8572944956   0.016806773087 0.01344237  0.00052228  0.0086699 0.0000
  5    -21.8760617812  -0.018767285513 0.00944671  0.00035500  0.0050133 0.0000
  6    -21.8779201533  -0.001858372089 0.00745372  0.00025227  0.0027477 0.0000
                      *** Initiating the SOSCF procedure ***
                           *** Shutting down DIIS ***
                      *** Re-Reading the Fockian *** 
                      *** Removing any level shift *** 
ITER      Energy       Delta-E        Grad      Rot      Max-DP    RMS-DP
  7    -21.87427054   0.0036496126  0.003210  0.003210  0.004590  0.000144
  8    -21.87215893   0.0021116114  0.000935  0.002653  0.002365  0.000068
  9    -21.87217594  -0.0000170092  0.000409  0.002639  0.002821  0.000075
 10    -21.87218244  -0.0000065033  0.000042  0.000085  0.000171  0.000005
                 **** Energy Check signals convergence ****
              ***Rediagonalizing the Fockian in SOSCF/NRSCF***

               *****************************************************
               *                     SUCCESS                       *
               *           SCF CONVERGED AFTER  11 CYCLES          *
               *****************************************************


----------------
TOTAL SCF ENERGY
----------------

Total Energy       :          -21.87218251 Eh            -595.17234 eV

Components:
Nuclear Repulsion  :          632.19167243 Eh           17202.80998 eV
Electronic Energy  :         -654.06385494 Eh          -17797.98232 eV

One Electron Energy:        -1217.78011833 Eh          -33137.48170 eV
Two Electron Energy:          563.71626339 Eh           15339.49937 eV


---------------
SCF CONVERGENCE
---------------

  Last Energy change         ...   -7.2533e-08  Tolerance :   1.0000e-06
  Last MAX-Density change    ...    8.0444e-05  Tolerance :   1.0000e-05
  Last RMS-Density change    ...    1.9307e-06  Tolerance :   1.0000e-06
  Last Orbital Gradient      ...    1.9333e-05  Tolerance :   5.0000e-05
  Last Orbital Rotation      ...    3.9745e-05  Tolerance :   5.0000e-05

             **** THE GBW FILE WAS UPDATED (/Users/mattyjones/GoogleDrive/Boise/Code/MorphCT/tests/output_EZ/donor_polymer/chromophores/input_orca/pair/00007-00019.gbw) ****
             **** DENSITY FILE WAS UPDATED (/Users/mattyjones/GoogleDrive/Boise/Code/MorphCT/tests/output_EZ/donor_polymer/chromophores/input_orca/pair/00007-00019.scfp.tmp) ****
             **** ENERGY FILE WAS UPDATED (/Users/mattyjones/GoogleDrive/Boise/Code/MorphCT/tests/output_EZ/donor_polymer/chromophores/input_orca/pair/00007-00019.en.tmp) ****
----------------
ORBITAL ENERGIES
----------------

  NO   OCC          E(Eh)            E(eV) 
   0   2.0000      -1.558849       -42.4184 
   1   2.0000      -1.558154       -42.3995 
   2   2.0000      -1.412964       -38.4487 
   3   2.0000      -1.381475       -37.5918 
   4   2.0000      -1.284880       -34.9634 
   5   2.0000      -1.281404       -34.8688 
   6   2.0000      -1.186155       -32.2769 
   7   2.0000      -1.179192       -32.0874 
   8   2.0000      -1.115604       -30.3571 
   9   2.0000      -1.108043       -30.1514 
  10   2.0000      -1.060341       -28.8534 
  11   2.0000      -1.039503       -28.2863 
  12   2.0000      -0.972003       -26.4495 
  13   2.0000      -0.956301       -26.0223 
  14   2.0000      -0.894873       -24.3507 
  15   2.0000      -0.891951       -24.2712 
  16   2.0000      -0.858542       -23.3621 
  17   2.0000      -0.855108       -23.2687 
  18   2.0000      -0.833121       -22.6704 
  19   2.0000      -0.819464       -22.2988 
  20   2.0000      -0.783911       -21.3313 
  21   2.0000      -0.770936       -20.9782 
  22   2.0000      -0.735749       -20.0207 
  23   2.0000      -0.724610       -19.7176 
  24   2.0000      -0.709647       -19.3105 
  25   2.0000      -0.686610       -18.6836 
  26   2.0000      -0.674106       -18.3434 
  27   2.0000      -0.669011       -18.2047 
  28   2.0000      -0.648246       -17.6397 
  29   2.0000      -0.634505       -17.2658 
  30   2.0000      -0.612566       -16.6688 
  31   2.0000      -0.609937       -16.5972 
  32   2.0000      -0.593429       -16.1480 
  33   2.0000      -0.585000       -15.9187 
  34   2.0000      -0.583758       -15.8849 
  35   2.0000      -0.576116       -15.6769 
  36   2.0000      -0.575101       -15.6493 
  37   2.0000      -0.561878       -15.2895 
  38   2.0000      -0.557445       -15.1688 
  39   2.0000      -0.552849       -15.0438 
  40   2.0000      -0.537477       -14.6255 
  41   2.0000      -0.534158       -14.5352 
  42   2.0000      -0.525919       -14.3110 
  43   2.0000      -0.522534       -14.2189 
  44   2.0000      -0.505726       -13.7615 
  45   2.0000      -0.497476       -13.5370 
  46   2.0000      -0.495157       -13.4739 
  47   2.0000      -0.495037       -13.4707 
  48   2.0000      -0.487221       -13.2579 
  49   2.0000      -0.482088       -13.1183 
  50   2.0000      -0.479049       -13.0356 
  51   2.0000      -0.475366       -12.9354 
  52   2.0000      -0.468571       -12.7505 
  53   2.0000      -0.464889       -12.6503 
  54   2.0000      -0.460972       -12.5437 
  55   2.0000      -0.456901       -12.4329 
  56   2.0000      -0.438439       -11.9305 
  57   2.0000      -0.436927       -11.8894 
  58   2.0000      -0.356738        -9.7073 
  59   2.0000      -0.349552        -9.5118 
  60   2.0000      -0.305235        -8.3059 
  61   2.0000      -0.305075        -8.3015 
  62   0.0000       0.002824         0.0768 
  63   0.0000       0.007504         0.2042 
  64   0.0000       0.058522         1.5925 
  65   0.0000       0.065298         1.7768 
  66   0.0000       0.069373         1.8877 
  67   0.0000       0.077734         2.1153 
  68   0.0000       0.085969         2.3393 
  69   0.0000       0.087237         2.3738 
  70   0.0000       0.104860         2.8534 
  71   0.0000       0.105498         2.8707 
  72   0.0000       0.108260         2.9459 
  73   0.0000       0.108513         2.9528 
  74   0.0000       0.123303         3.3552 
  75   0.0000       0.127044         3.4570 
  76   0.0000       0.141648         3.8544 
  77   0.0000       0.142242         3.8706 
  78   0.0000       0.158116         4.3025 
  79   0.0000       0.160467         4.3665 
  80   0.0000       0.165843         4.5128 
  81   0.0000       0.166643         4.5346 
  82   0.0000       0.170904         4.6505 
  83   0.0000       0.176294         4.7972 
  84   0.0000       0.199198         5.4205 
  85   0.0000       0.203823         5.5463 
  86   0.0000       0.230754         6.2791 
  87   0.0000       0.233658         6.3582 
  88   0.0000       0.235016         6.3951 
  89   0.0000       0.236278         6.4294 
  90   0.0000       0.236449         6.4341 
  91   0.0000       0.238250         6.4831 
  92   0.0000       0.239060         6.5052 
  93   0.0000       0.240105         6.5336 
  94   0.0000       0.241005         6.5581 
  95   0.0000       0.241231         6.5642 
  96   0.0000       0.242631         6.6023 
  97   0.0000       0.244335         6.6487 
  98   0.0000       0.244683         6.6582 
  99   0.0000       0.245004         6.6669 
 100   0.0000       0.245548         6.6817 
 101   0.0000       0.249532         6.7901 
 102   0.0000       0.250923         6.8280 
 103   0.0000       0.259716         7.0672 
 104   0.0000       0.265462         7.2236 
 105   0.0000       0.267047         7.2667 
 106   0.0000       0.277714         7.5570 
 107   0.0000       0.284971         7.7545 
 108   0.0000       0.301962         8.2168 
 109   0.0000       0.306984         8.3535 
 110   0.0000       0.308825         8.4036 
 111   0.0000       0.311127         8.4662 
 112   0.0000       0.335598         9.1321 
 113   0.0000       0.337468         9.1830 
 114   0.0000       0.349845         9.5198 
 115   0.0000       0.354759         9.6535 
 116   0.0000       0.415479        11.3058 
 117   0.0000       0.420635        11.4461 
 118   0.0000       0.428427        11.6581 
 119   0.0000       0.428713        11.6659 
-------
TIMINGS
-------

Total SCF time: 0 days 0 hours 0 min 0 sec 

Total time                  ....       0.130 sec
Sum of individual times     ....       0.105 sec  ( 81.0%)

Fock matrix formation       ....       0.052 sec  ( 40.1%)
Diagonalization             ....       0.024 sec  ( 18.3%)
Density matrix formation    ....       0.005 sec  (  4.0%)
Population analysis         ....       0.000 sec  (  0.0%)
Initial guess               ....       0.003 sec  (  2.4%)
Orbital Transformation      ....       0.000 sec  (  0.0%)
Orbital Orthonormalization  ....       0.000 sec  (  0.0%)
DIIS solution               ....       0.013 sec  ( 10.3%)
SOSCF solution              ....       0.008 sec  (  5.9%)

-------------------------   --------------------
FINAL SINGLE POINT ENERGY       -21.872182514340
-------------------------   --------------------


                            ***************************************
                            *     ORCA property calculations      *
                            ***************************************

                                    ---------------------
                                    Active property flags
                                    ---------------------
   (+) Dipole Moment


------------------------------------------------------------------------------
                       ORCA ELECTRIC PROPERTIES CALCULATION
------------------------------------------------------------------------------

Dipole Moment Calculation                       ... on
Quadrupole Moment Calculation                   ... off
Polarizability Calculation                      ... off
GBWName                                         ... /Users/mattyjones/GoogleDrive/Boise/Code/MorphCT/tests/output_EZ/donor_polymer/chromophores/input_orca/pair/00007-00019.gbw
Electron density file                           ... /Users/mattyjones/GoogleDrive/Boise/Code/MorphCT/tests/output_EZ/donor_polymer/chromophores/input_orca/pair/00007-00019.scfp.tmp

-------------
DIPOLE MOMENT
-------------
                                X             Y             Z
Electronic contribution:     47.30545     -10.75624      58.59023
Nuclear contribution   :    -20.77193       7.09401     -31.16521
                        -----------------------------------------
Total Dipole Moment    :     26.53352      -3.66224      27.42501
                        -----------------------------------------
Magnitude (a.u.)       :     38.33499
Magnitude (Debye)      :     97.43979


Timings for individual modules:

Sum of individual times         ...        0.225 sec (=   0.004 min)
STO integral calculation        ...        0.053 sec (=   0.001 min)  23.3 %
SCF iterations                  ...        0.173 sec (=   0.003 min)  76.7 %
                             ****ORCA TERMINATED NORMALLY****
TOTAL RUN TIME: 0 days 0 hours 0 minutes 0 seconds 529 msec

