
                                 *****************
                                 * O   R   C   A *
                                 *****************

           --- An Ab Initio, DFT and Semiempirical electronic structure package ---

                  #######################################################
                  #                        -***-                        #
                  #  Department of molecular theory and spectroscopy    #
                  #              Directorship: Frank Neese              #
                  # Max Planck Institute for Chemical Energy Conversion #
                  #                  D-45470 Muelheim/Ruhr              #
                  #                       Germany                       #
                  #                                                     #
                  #                  All rights reserved                #
                  #                        -***-                        #
                  #######################################################


                         Program Version 3.0.3 - RELEASE   -


 With contributions from (in alphabetic order):
   Ute Becker             : Parallelization
   Dmytro Bykov           : SCF Hessian
   Dmitry Ganyushin       : Spin-Orbit,Spin-Spin,Magnetic field MRCI
   Andreas Hansen         : Spin unrestricted coupled pair/coupled cluster methods
   Dimitrios Liakos       : Extrapolation schemes; parallel MDCI
   Robert Izsak           : Overlap fitted RIJCOSX, COSX-SCS-MP3
   Christian Kollmar      : KDIIS, OOCD, Brueckner-CCSD(T), CCSD density
   Simone Kossmann        : Meta GGA functionals, TD-DFT gradient, OOMP2, MP2 Hessian
   Taras Petrenko         : DFT Hessian,TD-DFT gradient, ASA and ECA modules, normal mode analysis, Resonance Raman, ABS, FL, XAS/XES, NRVS
   Christoph Reimann      : Effective Core Potentials
   Michael Roemelt        : Restricted open shell CIS
   Christoph Riplinger    : Improved optimizer, TS searches, QM/MM, DLPNO-CCSD
   Barbara Sandhoefer     : DKH picture change effects
   Igor Schapiro          : Molecular dynamics
   Kantharuban Sivalingam : CASSCF convergence, NEVPT2
   Boris Wezisla          : Elementary symmetry handling
   Frank Wennmohs         : Technical directorship


 We gratefully acknowledge several colleagues who have allowed us to
 interface, adapt or use parts of their codes:
   Stefan Grimme, W. Hujo, H. Kruse, T. Risthaus : VdW corrections, initial TS optimization,
                                                   DFT functionals, gCP
   Ed Valeev                                     : LibInt (2-el integral package), F12 methods
   Garnet Chan, S. Sharma, R. Olivares           : DMRG
   Ulf Ekstrom                                   : XCFun DFT Library
   Mihaly Kallay                                 : mrcc  (arbitrary order and MRCC methods)
   Andreas Klamt, Michael Diedenhofen            : otool_cosmo (COSMO solvation model)
   Frank Weinhold                                : gennbo (NPA and NBO analysis)
   Christopher J. Cramer and Donald G. Truhlar   : smd solvation model


 Your calculation uses the libint2 library for the computation of 2-el integrals
 For citations please refer to: http://libint.valeyev.net

 This ORCA versions uses:
   CBLAS   interface :  Fast vector & matrix operations
   LAPACKE interface :  Fast linear algebra routines
   SCALAPACK package :  Parallel linear algebra routines


leaving
================================================================================
                                        WARNINGS
                       Please study these warnings very carefully!
================================================================================
Now building the actual basis set

WARNING: Direct SCF is incompatible with Method<>HF and Method<>DFT
  ===> : conventional SCF is chosen

WARNING: The NDO methods need Guess=HUECKEL or Guess=HCORE or Guess=MOREAD
  ===> : Guess is set to Hueckel

WARNING: The NDO methods need %rel::SOCType==1
  ===> : %rel::SOCType is set to 1

WARNING: The NDO methods cannot have frozencore=1
  ===> : %method FrozenCore=0 end


INFO   : the flag for use of LIBINT has been found!

================================================================================
                                       INPUT FILE
================================================================================
NAME = /Users/mattyjones/GoogleDrive/Boise/Code/MorphCT/tests/output_EZ/donor_polymer/chromophores/input_orca/pair/00014-00029.inp
|  1> # ================================================================
|  2> # Orca input file made by Matty Jones
|  3> # ================================================================
|  4> ! ZINDO/S 
|  5> ! NOPOP
|  6> ! NOMOPRINT
|  7> * xyz 0   1
|  8>  C  38.09019  27.45647  0.89791
|  9>  C  37.36640  26.44498  1.53109
| 10>  C  38.17612  25.50399  2.24042
| 11>  C  39.54620  25.77380  2.16697
| 12>  S  39.68174  27.14316  1.24129
| 13>  H  36.22818  26.36448  1.49964
| 14>  C  37.60545  24.22351  3.05835
| 15>  C  36.27194  24.33235  4.12770
| 16>  C  35.88983  22.88091  4.96199
| 17>  H  35.58135  23.25741  6.02018
| 18>  H  36.91187  22.34038  5.06483
| 19>  H  35.35244  24.62216  3.50030
| 20>  H  36.49870  25.14513  4.90511
| 21>  H  38.46934  23.79578  3.72199
| 22>  H  37.31443  23.39581  2.29633
| 23>  C  34.79036  21.73120  4.56807
| 24>  C  35.12207  20.27926  5.40272
| 25>  C  34.07319  18.97310  5.22400
| 26>  H  34.03808  18.64929  4.11478
| 27>  H  33.01591  19.28097  5.57777
| 28>  H  34.45659  18.09216  5.87209
| 29>  H  36.15495  19.92488  5.02476
| 30>  H  35.19233  20.52559  6.52569
| 31>  H  34.79501  21.52314  3.43706
| 32>  H  33.73484  22.07296  4.89283
| 33>  C  -32.16178  -23.15468  -4.97418
| 34>  C  -33.49329  -22.88088  -4.65792
| 35>  C  -33.71423  -22.57115  -3.27969
| 36>  C  -32.55131  -22.60054  -2.50374
| 37>  S  -31.32814  -23.00253  -3.54905
| 38>  H  -34.33783  -22.86736  -5.42643
| 39>  C  -35.08923  -22.19244  -2.47645
| 40>  C  -36.63464  -22.92578  -2.13928
| 41>  C  -38.23874  -23.11194  -2.72715
| 42>  H  -38.92857  -22.90457  -1.81490
| 43>  H  -38.39134  -22.25274  -3.48328
| 44>  H  -36.30762  -24.03088  -1.99828
| 45>  H  -36.84843  -22.47312  -1.08604
| 46>  H  -35.46112  -21.19783  -2.98209
| 47>  H  -34.75635  -21.89585  -1.39171
| 48>  C  -38.69758  -24.53222  -3.37621
| 49>  C  -39.02130  -24.62159  -5.02706
| 50>  C  -39.09098  -23.14528  -5.82182
| 51>  H  -38.04798  -22.64611  -5.80353
| 52>  H  -39.86501  -22.46241  -5.29693
| 53>  H  -39.41870  -23.32111  -6.91831
| 54>  H  -38.19305  -25.25523  -5.51946
| 55>  H  -40.03776  -25.15058  -5.16437
| 56>  H  -37.87620  -25.32173  -3.15810
| 57>  H  -39.66795  -24.87660  -2.83761
| 58>  H  37.70388  28.25633  0.31947
| 59>  H  40.33336  25.21921  2.61016
| 60>  H  -31.76676  -23.40675  -5.92499
| 61>  H  -32.46884  -22.40650  -1.46492
| 62> *
| 63> 
| 64>                          ****END OF INPUT****
================================================================================

                       ****************************
                       * Single Point Calculation *
                       ****************************

---------------------------------
CARTESIAN COORDINATES (ANGSTROEM)
---------------------------------
  C     38.090190   27.456470    0.897910
  C     37.366400   26.444980    1.531090
  C     38.176120   25.503990    2.240420
  C     39.546200   25.773800    2.166970
  S     39.681740   27.143160    1.241290
  H     36.228180   26.364480    1.499640
  C     37.605450   24.223510    3.058350
  C     36.271940   24.332350    4.127700
  C     35.889830   22.880910    4.961990
  H     35.581350   23.257410    6.020180
  H     36.911870   22.340380    5.064830
  H     35.352440   24.622160    3.500300
  H     36.498700   25.145130    4.905110
  H     38.469340   23.795780    3.721990
  H     37.314430   23.395810    2.296330
  C     34.790360   21.731200    4.568070
  C     35.122070   20.279260    5.402720
  C     34.073190   18.973100    5.224000
  H     34.038080   18.649290    4.114780
  H     33.015910   19.280970    5.577770
  H     34.456590   18.092160    5.872090
  H     36.154950   19.924880    5.024760
  H     35.192330   20.525590    6.525690
  H     34.795010   21.523140    3.437060
  H     33.734840   22.072960    4.892830
  C    -32.161780  -23.154680   -4.974180
  C    -33.493290  -22.880880   -4.657920
  C    -33.714230  -22.571150   -3.279690
  C    -32.551310  -22.600540   -2.503740
  S    -31.328140  -23.002530   -3.549050
  H    -34.337830  -22.867360   -5.426430
  C    -35.089230  -22.192440   -2.476450
  C    -36.634640  -22.925780   -2.139280
  C    -38.238740  -23.111940   -2.727150
  H    -38.928570  -22.904570   -1.814900
  H    -38.391340  -22.252740   -3.483280
  H    -36.307620  -24.030880   -1.998280
  H    -36.848430  -22.473120   -1.086040
  H    -35.461120  -21.197830   -2.982090
  H    -34.756350  -21.895850   -1.391710
  C    -38.697580  -24.532220   -3.376210
  C    -39.021300  -24.621590   -5.027060
  C    -39.090980  -23.145280   -5.821820
  H    -38.047980  -22.646110   -5.803530
  H    -39.865010  -22.462410   -5.296930
  H    -39.418700  -23.321110   -6.918310
  H    -38.193050  -25.255230   -5.519460
  H    -40.037760  -25.150580   -5.164370
  H    -37.876200  -25.321730   -3.158100
  H    -39.667950  -24.876600   -2.837610
  H     37.703880   28.256330    0.319470
  H     40.333360   25.219210    2.610160
  H    -31.766760  -23.406750   -5.924990
  H    -32.468840  -22.406500   -1.464920

----------------------------
CARTESIAN COORDINATES (A.U.)
----------------------------
  NO LB      ZA    FRAG    MASS        X           Y           Z
   0 C     4.0000    0    12.011         71.980027489025915         51.885208904224825          1.696803992909231
   1 C     4.0000    0    12.011         70.612262610555049         49.973769817024824          2.893340786385489
   2 C     4.0000    0    12.011         72.142411655713772         48.195556422266264          4.233780224959850
   3 C     4.0000    0    12.011         74.731487637276601         48.705423430459561          4.094979840423335
   4 S     6.0000    0    32.060         74.987621117468279         51.293138809205963          2.345698152775110
   5 H     1.0000    0     1.008         68.461338530403211         49.821646863244162          2.833908899473666
   6 C     4.0000    0    12.011         71.064001642868931         45.775799902302779          5.779443921678060
   7 C     4.0000    0    12.011         68.544032946023606         45.981477694718770          7.800222562986750
   8 C     4.0000    0    12.011         67.821949692990955         43.238653594900107          9.376802179255911
   9 H     1.0000    0     1.008         67.239006975198933         43.950135484321457         11.376491476910040
  10 H     1.0000    0     1.008         69.753325390903839         42.217199927731649          9.571141614868372
  11 H     1.0000    0     1.008         66.806429765883010         46.529139225590491          6.614608386564558
  12 H     1.0000    0     1.008         68.972547244151585         47.517409301847287          9.269314556758470
  13 H     1.0000    0     1.008         72.696517152702171         44.967507343040644          7.033541773193559
  14 H     1.0000    0     1.008         70.514053543375169         44.211673581256157          4.339434813107388
  15 C     4.0000    0    12.011         65.744252500528560         41.066016561469503          8.632401260581652
  16 C     4.0000    0    12.011         66.371093556411580         38.322247598583886         10.209661178259026
  17 C     4.0000    0    12.011         64.388997609064248         35.853962911501299          9.871929323604618
  18 H     1.0000    0     1.008         64.322649324502279         35.242050692076262          7.775807301336488
  19 H     1.0000    0     1.008         62.391027962191991         36.435752896351637         10.540457738001940
  20 H     1.0000    0     1.008         65.113518608809656         34.189227571084714         11.096641933737642
  21 H     1.0000    0     1.008         68.322953885616158         37.652566451244873          9.495420288682148
  22 H     1.0000    0     1.008         66.503865714580883         38.787743837152703         12.331766934868572
  23 H     1.0000    0     1.008         65.753039727051288         40.672840142045850          6.495102105855377
  24 H     1.0000    0     1.008         63.749608771651992         41.711849364998429          9.246108719833918
  25 C     4.0000    0    12.011        -60.776956179425831        -43.756003918583723         -9.399837940828411
  26 C     4.0000    0    12.011        -63.293145424003320        -43.238596903116090         -8.802193153714477
  27 C     4.0000    0    12.011        -63.710661516031884        -42.653292027656661         -6.197715904160190
  28 C     4.0000    0    12.011        -61.513061200372178        -42.708831078732601         -4.731382910543995
  29 S     6.0000    0    32.060        -59.201604885143723        -43.468482087307606         -6.706732535593217
  30 H     1.0000    0     1.008        -64.889094733145171        -43.213047805785479        -10.254466584894297
  31 C     4.0000    0    12.011        -66.309034950173597        -41.937633843479347         -4.679812284349284
  32 C     4.0000    0    12.011        -69.229436614796839        -43.323445606529155         -4.042653323775055
  33 C     4.0000    0    12.011        -72.260746306219929        -43.675237023619935         -5.153566626123341
  34 H     1.0000    0     1.008        -73.564336085182816        -43.283364515228683         -3.429663960453679
  35 H     1.0000    0     1.008        -72.549118514256307        -42.051584329354789         -6.582445247765218
  36 H     1.0000    0     1.008        -68.611458374481913        -45.411781957125527         -3.776201938892159
  37 H     1.0000    0     1.008        -69.633441164967863        -42.468042174748362         -2.052318170483836
  38 H     1.0000    0     1.008        -67.011805202117571        -40.058093333419926         -5.635333406705225
  39 H     1.0000    0     1.008        -65.679982914713889        -41.377159969419637         -2.629950757839545
  40 C     4.0000    0    12.011        -73.127828245508354        -46.359177257105607         -6.380112270606269
  41 C     4.0000    0    12.011        -73.739570389581331        -46.528062081694152         -9.499766658790167
  42 C     4.0000    0    12.011        -73.871246506592968        -43.738240492924866        -11.001645400985421
  43 H     1.0000    0     1.008        -71.900262148913114        -42.794945898655399        -10.967082309996002
  44 H     1.0000    0     1.008        -75.333951226032028        -42.447803207854058        -10.009747050551494
  45 H     1.0000    0     1.008        -74.490547555201644        -44.070511039052242        -13.073711209568735
  46 H     1.0000    0     1.008        -72.174404719161060        -47.725468149192011        -10.430267807132990
  47 H     1.0000    0     1.008        -75.660401415666925        -47.527708309277159         -9.759244954238895
  48 H     1.0000    0     1.008        -71.575644993628103        -47.851134937097775         -5.967944103536705
  49 H     1.0000    0     1.008        -74.961561794081504        -47.009961143105407         -5.362305774876283
  50 H     1.0000    0     1.008         71.250007386230791         53.396725249703081          0.603710808003822
  51 H     1.0000    0     1.008         76.219004460854052         47.657400213848170          4.932487565715895
  52 H     1.0000    0     1.008        -60.030476562004260        -44.232347185161252        -11.196608446222077
  53 H     1.0000    0     1.008        -61.357215486107691        -42.342148619706528         -2.768297608103920

--------------------------------
INTERNAL COORDINATES (ANGSTROEM)
--------------------------------
 C      0   0   0   0.000000     0.000     0.000
 C      1   0   0   1.395672     0.000     0.000
 C      2   1   0   1.429775   114.101     0.000
 C      3   2   1   1.398325   113.693     0.000
 S      1   2   3   1.658042   105.480     0.000
 H      2   1   3   1.141496   123.760   179.712
 C      3   2   1   1.623054   124.758   180.413
 C      7   3   2   1.712777   122.564   313.872
 C      8   7   3   1.717185   115.016   183.488
 H      9   8   7   1.164765   103.127   142.263
 H      9   8   7   1.160739   103.929    30.013
 H      8   7   3   1.150261   107.328    63.984
 H      8   7   3   1.147344   108.311   304.746
 H      7   3   2   1.170332   108.334   192.773
 H      7   3   2   1.162091   108.634    76.590
 C      9   8   7   1.638853   128.717   264.873
 C     16   9   8   1.707279   110.411   161.876
 C     17  16   9   1.684679   119.113   176.658
 H     18  17  16   1.156051   109.747    60.801
 H     18  17  16   1.156624   109.287   300.227
 H     18  17  16   1.158910   108.908   180.651
 H     17  16   9   1.155543   105.937   296.468
 H     17  16   9   1.151814   107.855    53.372
 H     16   9   8   1.149997   111.137    40.746
 H     16   9   8   1.156024   109.733   279.514
 C     20  18  17  78.487319   125.034   169.891
 C     26  20  18   1.395674   130.974   183.291
 C     27  26  20   1.429778   114.101   304.077
 C     28  27  26   1.398337   113.693     0.000
 S     26  20  18   1.658041    54.360   104.110
 H     27  26  20   1.141945   123.737   122.144
 C     28  27  26   1.636839   130.765   179.958
 C     32  28  27   1.743492   137.917    60.189
 C     33  32  28   1.718541   143.782   271.100
 H     34  33  32   1.162354   105.436   227.052
 H     34  33  32   1.154662   105.472   340.775
 H     33  32  28   1.161064   100.030    37.083
 H     33  32  28   1.166157   100.014   147.716
 H     32  28  27   1.176105   104.496   298.138
 H     32  28  27   1.172790   105.900   186.581
 C     34  33  32   1.627577   119.609   105.953
 C     41  34  33   1.684662   119.423   248.496
 C     42  41  34   1.678091   115.177   349.923
 H     43  42  41   1.156440   109.560    65.464
 H     43  42  41   1.157991   109.383   304.880
 H     43  42  41   1.157846   109.067   185.454
 H     42  41  34   1.153237   108.032   110.881
 H     42  41  34   1.154069   108.068   228.989
 H     41  34  33   1.159984   108.622    10.797
 H     41  34  33   1.162026   108.011   127.231
 H      1   2   3   1.060002   127.261   180.001
 H      4   3   2   1.060004   127.206   180.000
 H     26  20  18   1.060009    86.543   321.958
 H     29  28  27   1.060000   127.206   180.000

---------------------------
INTERNAL COORDINATES (A.U.)
---------------------------
 C      0   0   0   0.000000     0.000     0.000
 C      1   0   0   2.637438     0.000     0.000
 C      2   1   0   2.701884   114.101     0.000
 C      3   2   1   2.642450   113.693     0.000
 S      1   2   3   3.133246   105.480     0.000
 H      2   1   3   2.157116   123.760   179.712
 C      3   2   1   3.067127   124.758   180.413
 C      7   3   2   3.236679   122.564   313.872
 C      8   7   3   3.245010   115.016   183.488
 H      9   8   7   2.201087   103.127   142.263
 H      9   8   7   2.193478   103.929    30.013
 H      8   7   3   2.173679   107.328    63.984
 H      8   7   3   2.168166   108.311   304.746
 H      7   3   2   2.211607   108.334   192.773
 H      7   3   2   2.196033   108.634    76.590
 C      9   8   7   3.096984   128.717   264.873
 C     16   9   8   3.226290   110.411   161.876
 C     17  16   9   3.183582   119.113   176.658
 H     18  17  16   2.184620   109.747    60.801
 H     18  17  16   2.185702   109.287   300.227
 H     18  17  16   2.190022   108.908   180.651
 H     17  16   9   2.183660   105.937   296.468
 H     17  16   9   2.176614   107.855    53.372
 H     16   9   8   2.173180   111.137    40.746
 H     16   9   8   2.184569   109.733   279.514
 C     20  18  17 148.319539   125.034   169.891
 C     26  20  18   2.637441   130.974   183.291
 C     27  26  20   2.701889   114.101   304.077
 C     28  27  26   2.642473   113.693     0.000
 S     26  20  18   3.133244    54.360   104.110
 H     27  26  20   2.157963   123.737   122.144
 C     28  27  26   3.093177   130.765   179.958
 C     32  28  27   3.294722   137.917    60.189
 C     33  32  28   3.247572   143.782   271.100
 H     34  33  32   2.196532   105.436   227.052
 H     34  33  32   2.181995   105.472   340.775
 H     33  32  28   2.194093   100.030    37.083
 H     33  32  28   2.203717   100.014   147.716
 H     32  28  27   2.222516   104.496   298.138
 H     32  28  27   2.216251   105.900   186.581
 C     34  33  32   3.075676   119.609   105.953
 C     41  34  33   3.183551   119.423   248.496
 C     42  41  34   3.171133   115.177   349.923
 H     43  42  41   2.185355   109.560    65.464
 H     43  42  41   2.188286   109.383   304.880
 H     43  42  41   2.188011   109.067   185.454
 H     42  41  34   2.179302   108.032   110.881
 H     42  41  34   2.180874   108.068   228.989
 H     41  34  33   2.192052   108.622    10.797
 H     41  34  33   2.195912   108.011   127.231
 H      1   2   3   2.003114   127.261   180.001
 H      4   3   2   2.003117   127.206   180.000
 H     26  20  18   2.003127    86.543   321.958
 H     29  28  27   2.003110   127.206   180.000

----------------------------
SLATER BASIS SET DIM= 120
----------------------------
  0 C     2 shells
 l=0 nsto= 1
    2       1.625000000000        1.000000000000
 l=1 nsto= 1
    2       1.625000000000        1.000000000000
  1 C     2 shells
 l=0 nsto= 1
    2       1.625000000000        1.000000000000
 l=1 nsto= 1
    2       1.625000000000        1.000000000000
  2 C     2 shells
 l=0 nsto= 1
    2       1.625000000000        1.000000000000
 l=1 nsto= 1
    2       1.625000000000        1.000000000000
  3 C     2 shells
 l=0 nsto= 1
    2       1.625000000000        1.000000000000
 l=1 nsto= 1
    2       1.625000000000        1.000000000000
  4 S     2 shells
 l=0 nsto= 1
    3       1.925000000000        1.000000000000
 l=1 nsto= 1
    3       1.925000000000        1.000000000000
  5 H     1 shells
 l=0 nsto= 1
    1       1.200000000000        1.000000000000
  6 C     2 shells
 l=0 nsto= 1
    2       1.625000000000        1.000000000000
 l=1 nsto= 1
    2       1.625000000000        1.000000000000
  7 C     2 shells
 l=0 nsto= 1
    2       1.625000000000        1.000000000000
 l=1 nsto= 1
    2       1.625000000000        1.000000000000
  8 C     2 shells
 l=0 nsto= 1
    2       1.625000000000        1.000000000000
 l=1 nsto= 1
    2       1.625000000000        1.000000000000
  9 H     1 shells
 l=0 nsto= 1
    1       1.200000000000        1.000000000000
 10 H     1 shells
 l=0 nsto= 1
    1       1.200000000000        1.000000000000
 11 H     1 shells
 l=0 nsto= 1
    1       1.200000000000        1.000000000000
 12 H     1 shells
 l=0 nsto= 1
    1       1.200000000000        1.000000000000
 13 H     1 shells
 l=0 nsto= 1
    1       1.200000000000        1.000000000000
 14 H     1 shells
 l=0 nsto= 1
    1       1.200000000000        1.000000000000
 15 C     2 shells
 l=0 nsto= 1
    2       1.625000000000        1.000000000000
 l=1 nsto= 1
    2       1.625000000000        1.000000000000
 16 C     2 shells
 l=0 nsto= 1
    2       1.625000000000        1.000000000000
 l=1 nsto= 1
    2       1.625000000000        1.000000000000
 17 C     2 shells
 l=0 nsto= 1
    2       1.625000000000        1.000000000000
 l=1 nsto= 1
    2       1.625000000000        1.000000000000
 18 H     1 shells
 l=0 nsto= 1
    1       1.200000000000        1.000000000000
 19 H     1 shells
 l=0 nsto= 1
    1       1.200000000000        1.000000000000
 20 H     1 shells
 l=0 nsto= 1
    1       1.200000000000        1.000000000000
 21 H     1 shells
 l=0 nsto= 1
    1       1.200000000000        1.000000000000
 22 H     1 shells
 l=0 nsto= 1
    1       1.200000000000        1.000000000000
 23 H     1 shells
 l=0 nsto= 1
    1       1.200000000000        1.000000000000
 24 H     1 shells
 l=0 nsto= 1
    1       1.200000000000        1.000000000000
 25 C     2 shells
 l=0 nsto= 1
    2       1.625000000000        1.000000000000
 l=1 nsto= 1
    2       1.625000000000        1.000000000000
 26 C     2 shells
 l=0 nsto= 1
    2       1.625000000000        1.000000000000
 l=1 nsto= 1
    2       1.625000000000        1.000000000000
 27 C     2 shells
 l=0 nsto= 1
    2       1.625000000000        1.000000000000
 l=1 nsto= 1
    2       1.625000000000        1.000000000000
 28 C     2 shells
 l=0 nsto= 1
    2       1.625000000000        1.000000000000
 l=1 nsto= 1
    2       1.625000000000        1.000000000000
 29 S     2 shells
 l=0 nsto= 1
    3       1.925000000000        1.000000000000
 l=1 nsto= 1
    3       1.925000000000        1.000000000000
 30 H     1 shells
 l=0 nsto= 1
    1       1.200000000000        1.000000000000
 31 C     2 shells
 l=0 nsto= 1
    2       1.625000000000        1.000000000000
 l=1 nsto= 1
    2       1.625000000000        1.000000000000
 32 C     2 shells
 l=0 nsto= 1
    2       1.625000000000        1.000000000000
 l=1 nsto= 1
    2       1.625000000000        1.000000000000
 33 C     2 shells
 l=0 nsto= 1
    2       1.625000000000        1.000000000000
 l=1 nsto= 1
    2       1.625000000000        1.000000000000
 34 H     1 shells
 l=0 nsto= 1
    1       1.200000000000        1.000000000000
 35 H     1 shells
 l=0 nsto= 1
    1       1.200000000000        1.000000000000
 36 H     1 shells
 l=0 nsto= 1
    1       1.200000000000        1.000000000000
 37 H     1 shells
 l=0 nsto= 1
    1       1.200000000000        1.000000000000
 38 H     1 shells
 l=0 nsto= 1
    1       1.200000000000        1.000000000000
 39 H     1 shells
 l=0 nsto= 1
    1       1.200000000000        1.000000000000
 40 C     2 shells
 l=0 nsto= 1
    2       1.625000000000        1.000000000000
 l=1 nsto= 1
    2       1.625000000000        1.000000000000
 41 C     2 shells
 l=0 nsto= 1
    2       1.625000000000        1.000000000000
 l=1 nsto= 1
    2       1.625000000000        1.000000000000
 42 C     2 shells
 l=0 nsto= 1
    2       1.625000000000        1.000000000000
 l=1 nsto= 1
    2       1.625000000000        1.000000000000
 43 H     1 shells
 l=0 nsto= 1
    1       1.200000000000        1.000000000000
 44 H     1 shells
 l=0 nsto= 1
    1       1.200000000000        1.000000000000
 45 H     1 shells
 l=0 nsto= 1
    1       1.200000000000        1.000000000000
 46 H     1 shells
 l=0 nsto= 1
    1       1.200000000000        1.000000000000
 47 H     1 shells
 l=0 nsto= 1
    1       1.200000000000        1.000000000000
 48 H     1 shells
 l=0 nsto= 1
    1       1.200000000000        1.000000000000
 49 H     1 shells
 l=0 nsto= 1
    1       1.200000000000        1.000000000000
 50 H     1 shells
 l=0 nsto= 1
    1       1.200000000000        1.000000000000
 51 H     1 shells
 l=0 nsto= 1
    1       1.200000000000        1.000000000000
 52 H     1 shells
 l=0 nsto= 1
    1       1.200000000000        1.000000000000
 53 H     1 shells
 l=0 nsto= 1
    1       1.200000000000        1.000000000000
------------------------------------------------------------------------------
                           ORCA NDO INTEGRAL CALCULATION
------------------------------------------------------------------------------

--------------
NDO PARAMETERS
--------------

Gamma integral treatment              ... Mataga-Nishimoto
Nuclear repulsuion treatment          ... Direct (ZA*ZB/RAB)
Interaction factors:
s-s (sigma) =    1.0000
s-p (sigma) =    1.0000
s-d (sigma) =    1.0000
p-p (sigma) =    1.2670  p-p(pi) =    0.5850
p-d (sigma) =    1.0000  p-d(pi) =    1.0000
d-d (sigma) =    1.0000  d-d(pi) =    1.0000 d-d (delta) =    1.0000

fGamma parameter for Mataga-Nishimoto gamma integrals:    1.2000

--------------------------
Parameters for Element H :
--------------------------
 One-electron parameters (in eV)
  U(s)  =   -13.060000 Beta(s) =    12.000000 Neff(s) =     1.000000
 One-center electron repulsion parameters (in eV)
  G(s,s)=    12.850000
--------------------------
Parameters for Element C :
--------------------------
 One-electron parameters (in eV)
  U(s)  =   -50.870766 Beta(s) =    17.000000 Neff(s) =     2.000000
  U(p)  =   -41.599980 Beta(p) =    17.000000 Neff(p) =     2.000000 
 One-center electron repulsion parameters (in eV)
  G(s,s)=    11.110000
  G(s,p)=    11.110000 G(p,p)  =    11.110000
 Slater-Condon parameters (in eV)
 F2(p,p)=     4.5098 G1(s,p)=    6.8977
--------------------------
Parameters for Element S :
--------------------------
 One-electron parameters (in eV)
  U(s)  =   -69.509597 Beta(s) =    15.000000 Neff(s) =     2.000000
  U(p)  =   -60.725746 Beta(p) =    15.000000 Neff(p) =     4.000000 
 One-center electron repulsion parameters (in eV)
  G(s,s)=    10.090000
  G(s,p)=    10.090000 G(p,p)  =    10.090000
 Slater-Condon parameters (in eV)
 F2(p,p)=     4.5377 G1(s,p)=    3.0756

 Number of atoms                    ....   54
 Number of basis functions          ....  120

 Overlap integrals                  .... done
 One electron matrix                .... done
 Nuclear repulsion                  .... done
 Integral list                      .... done
 Electron-electron repulsion        .... done
-------------------------------------------------------------------------------
                                 ORCA SCF
-------------------------------------------------------------------------------

------------
SCF SETTINGS
------------
Hamiltonian:
 ZDO-Hamiltonian        Method          .... INDO


General Settings:
 Integral files         IntName         .... /Users/mattyjones/GoogleDrive/Boise/Code/MorphCT/tests/output_EZ/donor_polymer/chromophores/input_orca/pair/00014-00029
 Hartree-Fock type      HFTyp           .... RHF
 Total Charge           Charge          ....    0
 Multiplicity           Mult            ....    1
 Number of Electrons    NEL             ....  124
 Basis Dimension        Dim             ....  120
 Nuclear Repulsion      ENuc            ....    602.2538264168 Eh

Convergence Acceleration:
 DIIS                   CNVDIIS         .... on
   Start iteration      DIISMaxIt       ....    12
   Startup error        DIISStart       ....  0.200000
   # of expansion vecs  DIISMaxEq       ....     5
   Bias factor          DIISBfac        ....   1.050
   Max. coefficient     DIISMaxC        ....  10.000
 Newton-Raphson         CNVNR           .... off
 SOSCF                  CNVSOSCF        .... on
   Start iteration      SOSCFMaxIt      ....   150
   Startup grad/error   SOSCFStart      ....  0.003300
 Level Shifting         CNVShift        .... on
   Level shift para.    LevelShift      ....    0.2500
   Turn off err/grad.   ShiftErr        ....    0.0010
 Zerner damping         CNVZerner       .... off
 Static damping         CNVDamp         .... on
   Fraction old density DampFac         ....    0.7000
   Max. Damping (<1)    DampMax         ....    0.9800
   Min. Damping (>=0)   DampMin         ....    0.0000
   Turn off err/grad.   DampErr         ....    0.1000
 Fernandez-Rico         CNVRico         .... off

SCF Procedure:
 Maximum # iterations   MaxIter         ....   125
 SCF integral mode      SCFMode         .... Conventional
 Integral Buffer length BufferLength    .... 1048576
 Integral index format  IndFormat       ....     0
 Integral value format  ValFormat       ....     0
 Integral Storage       Thresh          ....  1.000e-08 Eh

Convergence Tolerance:
 Convergence Check Mode ConvCheckMode   .... Total+1el-Energy
 Energy Change          TolE            ....  1.000e-06 Eh
 1-El. energy change                    ....  1.000e-03 Eh
 Orbital Gradient       TolG            ....  5.000e-05
 Orbital Rotation angle TolX            ....  5.000e-05
 DIIS Error             TolErr          ....  1.000e-06


Diagonalization of the overlap matrix:
Smallest eigenvalue                        ... 1.698e-01
Time for diagonalization                   ...    0.004 sec
Threshold for overlap eigenvalues          ... 1.000e-08
Number of eigenvalues below threshold      ... 0
Time for construction of square roots      ...    0.001 sec
Total time needed                          ...    0.005 sec

-------------------------------
INITIAL GUESS: EXTENDED HUECKEL
-------------------------------
EHT matrix was read from disk
EHT matrix was diagonalized
Initial density was built
                      ------------------
                      INITIAL GUESS DONE
                      ------------------

 InCore treatment chosen:
   Memory dedicated               ...    1024 MB
   Memory needed                  ...      0 MB
   Number of tiny    integrals    ...       0
   Number of small   integrals    ...       0
   Number of regular integrals    ...    7392

--------------
SCF ITERATIONS
--------------
ITER       Energy         Delta-E        Max-DP      RMS-DP      [F,P]     Damp
  0    -20.7468610685   0.000000000000 0.04478776  0.00144465  0.1110100 0.7000
  1    -20.7885632039  -0.041702135393 0.04416050  0.00136158  0.0758898 0.7000
                               ***Turning on DIIS***
  2    -20.8194223787  -0.030859174826 0.11781164  0.00349880  0.0469624 0.0000
  3    -20.9009161747  -0.081493796014 0.02383372  0.00073610  0.0212219 0.0000
  4    -20.8849428923   0.015973282401 0.01594511  0.00050225  0.0083008 0.0000
  5    -20.9018651166  -0.016922224321 0.01124711  0.00033940  0.0049719 0.0000
  6    -20.9044701874  -0.002605070745 0.00838079  0.00024039  0.0030606 0.0000
                      *** Initiating the SOSCF procedure ***
                           *** Shutting down DIIS ***
                      *** Re-Reading the Fockian *** 
                      *** Removing any level shift *** 
ITER      Energy       Delta-E        Grad      Rot      Max-DP    RMS-DP
  7    -20.90036497   0.0041052134  0.003010  0.003010  0.005023  0.000135
  8    -20.89860835   0.0017566194  0.000800  0.002192  0.002519  0.000062
  9    -20.89862282  -0.0000144673  0.000354  0.002152  0.002806  0.000066
 10    -20.89862812  -0.0000052933  0.000029  0.000060  0.000133  0.000004
                 **** Energy Check signals convergence ****
              ***Rediagonalizing the Fockian in SOSCF/NRSCF***

               *****************************************************
               *                     SUCCESS                       *
               *           SCF CONVERGED AFTER  11 CYCLES          *
               *****************************************************


----------------
TOTAL SCF ENERGY
----------------

Total Energy       :          -20.89862816 Eh            -568.68058 eV

Components:
Nuclear Repulsion  :          602.25382642 Eh           16388.15977 eV
Electronic Energy  :         -623.15245458 Eh          -16956.84036 eV

One Electron Energy:        -1156.04586759 Eh          -31457.60733 eV
Two Electron Energy:          532.89341301 Eh           14500.76697 eV


---------------
SCF CONVERGENCE
---------------

  Last Energy change         ...   -4.4051e-08  Tolerance :   1.0000e-06
  Last MAX-Density change    ...    4.0146e-05  Tolerance :   1.0000e-05
  Last RMS-Density change    ...    1.1333e-06  Tolerance :   1.0000e-06
  Last Orbital Gradient      ...    7.3275e-06  Tolerance :   5.0000e-05
  Last Orbital Rotation      ...    1.8804e-05  Tolerance :   5.0000e-05

             **** THE GBW FILE WAS UPDATED (/Users/mattyjones/GoogleDrive/Boise/Code/MorphCT/tests/output_EZ/donor_polymer/chromophores/input_orca/pair/00014-00029.gbw) ****
             **** DENSITY FILE WAS UPDATED (/Users/mattyjones/GoogleDrive/Boise/Code/MorphCT/tests/output_EZ/donor_polymer/chromophores/input_orca/pair/00014-00029.scfp.tmp) ****
             **** ENERGY FILE WAS UPDATED (/Users/mattyjones/GoogleDrive/Boise/Code/MorphCT/tests/output_EZ/donor_polymer/chromophores/input_orca/pair/00014-00029.en.tmp) ****
----------------
ORBITAL ENERGIES
----------------

  NO   OCC          E(Eh)            E(eV) 
   0   2.0000      -1.555260       -42.3208 
   1   2.0000      -1.555259       -42.3207 
   2   2.0000      -1.396177       -37.9919 
   3   2.0000      -1.387209       -37.7479 
   4   2.0000      -1.289412       -35.0867 
   5   2.0000      -1.277959       -34.7750 
   6   2.0000      -1.187472       -32.3127 
   7   2.0000      -1.181965       -32.1629 
   8   2.0000      -1.115686       -30.3594 
   9   2.0000      -1.106537       -30.1104 
  10   2.0000      -1.051536       -28.6138 
  11   2.0000      -1.042091       -28.3567 
  12   2.0000      -0.990912       -26.9641 
  13   2.0000      -0.947241       -25.7757 
  14   2.0000      -0.906724       -24.6732 
  15   2.0000      -0.890124       -24.2215 
  16   2.0000      -0.871548       -23.7160 
  17   2.0000      -0.836566       -22.7641 
  18   2.0000      -0.832314       -22.6484 
  19   2.0000      -0.823127       -22.3984 
  20   2.0000      -0.775860       -21.1122 
  21   2.0000      -0.775465       -21.1015 
  22   2.0000      -0.727099       -19.7854 
  23   2.0000      -0.724665       -19.7191 
  24   2.0000      -0.704804       -19.1787 
  25   2.0000      -0.699484       -19.0339 
  26   2.0000      -0.669915       -18.2293 
  27   2.0000      -0.668927       -18.2024 
  28   2.0000      -0.633199       -17.2302 
  29   2.0000      -0.629685       -17.1346 
  30   2.0000      -0.620757       -16.8917 
  31   2.0000      -0.618592       -16.8328 
  32   2.0000      -0.610497       -16.6125 
  33   2.0000      -0.590745       -16.0750 
  34   2.0000      -0.578235       -15.7346 
  35   2.0000      -0.571201       -15.5432 
  36   2.0000      -0.566725       -15.4214 
  37   2.0000      -0.561998       -15.2928 
  38   2.0000      -0.549684       -14.9577 
  39   2.0000      -0.549401       -14.9500 
  40   2.0000      -0.534691       -14.5497 
  41   2.0000      -0.531862       -14.4727 
  42   2.0000      -0.512668       -13.9504 
  43   2.0000      -0.512441       -13.9442 
  44   2.0000      -0.504389       -13.7251 
  45   2.0000      -0.503408       -13.6984 
  46   2.0000      -0.499921       -13.6035 
  47   2.0000      -0.499820       -13.6008 
  48   2.0000      -0.490794       -13.3552 
  49   2.0000      -0.487508       -13.2658 
  50   2.0000      -0.483231       -13.1494 
  51   2.0000      -0.470272       -12.7967 
  52   2.0000      -0.469739       -12.7822 
  53   2.0000      -0.461464       -12.5571 
  54   2.0000      -0.460515       -12.5312 
  55   2.0000      -0.439568       -11.9613 
  56   2.0000      -0.439137       -11.9495 
  57   2.0000      -0.430289       -11.7088 
  58   2.0000      -0.357685        -9.7331 
  59   2.0000      -0.357356        -9.7241 
  60   2.0000      -0.305680        -8.3180 
  61   2.0000      -0.305025        -8.3002 
  62   0.0000       0.005725         0.1558 
  63   0.0000       0.007463         0.2031 
  64   0.0000       0.040013         1.0888 
  65   0.0000       0.062763         1.7079 
  66   0.0000       0.072802         1.9810 
  67   0.0000       0.074714         2.0331 
  68   0.0000       0.084515         2.2998 
  69   0.0000       0.084794         2.3074 
  70   0.0000       0.099256         2.7009 
  71   0.0000       0.104031         2.8308 
  72   0.0000       0.106281         2.8921 
  73   0.0000       0.108260         2.9459 
  74   0.0000       0.120799         3.2871 
  75   0.0000       0.123906         3.3717 
  76   0.0000       0.141179         3.8417 
  77   0.0000       0.145702         3.9647 
  78   0.0000       0.155546         4.2326 
  79   0.0000       0.158464         4.3120 
  80   0.0000       0.164303         4.4709 
  81   0.0000       0.166205         4.5227 
  82   0.0000       0.172196         4.6857 
  83   0.0000       0.174042         4.7359 
  84   0.0000       0.202077         5.4988 
  85   0.0000       0.204977         5.5777 
  86   0.0000       0.220258         5.9935 
  87   0.0000       0.229402         6.2424 
  88   0.0000       0.231875         6.3096 
  89   0.0000       0.234419         6.3789 
  90   0.0000       0.236771         6.4429 
  91   0.0000       0.237030         6.4499 
  92   0.0000       0.237878         6.4730 
  93   0.0000       0.239087         6.5059 
  94   0.0000       0.239094         6.5061 
  95   0.0000       0.239375         6.5137 
  96   0.0000       0.240628         6.5478 
  97   0.0000       0.241754         6.5785 
  98   0.0000       0.242150         6.5892 
  99   0.0000       0.242817         6.6074 
 100   0.0000       0.244598         6.6558 
 101   0.0000       0.245616         6.6835 
 102   0.0000       0.255929         6.9642 
 103   0.0000       0.258020         7.0211 
 104   0.0000       0.265282         7.2187 
 105   0.0000       0.265293         7.2190 
 106   0.0000       0.270642         7.3645 
 107   0.0000       0.279187         7.5971 
 108   0.0000       0.302200         8.2233 
 109   0.0000       0.304813         8.2944 
 110   0.0000       0.308857         8.4044 
 111   0.0000       0.309963         8.4345 
 112   0.0000       0.341863         9.3026 
 113   0.0000       0.343922         9.3586 
 114   0.0000       0.356918         9.7122 
 115   0.0000       0.364591         9.9210 
 116   0.0000       0.404820        11.0157 
 117   0.0000       0.409677        11.1479 
 118   0.0000       0.431065        11.7299 
 119   0.0000       0.438109        11.9215 
-------
TIMINGS
-------

Total SCF time: 0 days 0 hours 0 min 0 sec 

Total time                  ....       0.178 sec
Sum of individual times     ....       0.113 sec  ( 63.6%)

Fock matrix formation       ....       0.051 sec  ( 28.5%)
Diagonalization             ....       0.025 sec  ( 14.1%)
Density matrix formation    ....       0.006 sec  (  3.2%)
Population analysis         ....       0.000 sec  (  0.0%)
Initial guess               ....       0.003 sec  (  1.6%)
Orbital Transformation      ....       0.000 sec  (  0.0%)
Orbital Orthonormalization  ....       0.000 sec  (  0.0%)
DIIS solution               ....       0.021 sec  ( 12.0%)
SOSCF solution              ....       0.007 sec  (  4.1%)

-------------------------   --------------------
FINAL SINGLE POINT ENERGY       -20.898628159278
-------------------------   --------------------


                            ***************************************
                            *     ORCA property calculations      *
                            ***************************************

                                    ---------------------
                                    Active property flags
                                    ---------------------
   (+) Dipole Moment


------------------------------------------------------------------------------
                       ORCA ELECTRIC PROPERTIES CALCULATION
------------------------------------------------------------------------------

Dipole Moment Calculation                       ... on
Quadrupole Moment Calculation                   ... off
Polarizability Calculation                      ... off
GBWName                                         ... /Users/mattyjones/GoogleDrive/Boise/Code/MorphCT/tests/output_EZ/donor_polymer/chromophores/input_orca/pair/00014-00029.gbw
Electron density file                           ... /Users/mattyjones/GoogleDrive/Boise/Code/MorphCT/tests/output_EZ/donor_polymer/chromophores/input_orca/pair/00014-00029.scfp.tmp

-------------
DIPOLE MOMENT
-------------
                                X             Y             Z
Electronic contribution:    209.70158     108.15178     -62.45691
Nuclear contribution   :   -118.05290     -62.05759      33.66486
                        -----------------------------------------
Total Dipole Moment    :     91.64868      46.09419     -28.79205
                        -----------------------------------------
Magnitude (a.u.)       :    106.55110
Magnitude (Debye)      :    270.83138


Timings for individual modules:

Sum of individual times         ...        0.264 sec (=   0.004 min)
STO integral calculation        ...        0.041 sec (=   0.001 min)  15.6 %
SCF iterations                  ...        0.222 sec (=   0.004 min)  84.4 %
                             ****ORCA TERMINATED NORMALLY****
TOTAL RUN TIME: 0 days 0 hours 0 minutes 0 seconds 644 msec

