
                                 *****************
                                 * O   R   C   A *
                                 *****************

           --- An Ab Initio, DFT and Semiempirical electronic structure package ---

                  #######################################################
                  #                        -***-                        #
                  #  Department of molecular theory and spectroscopy    #
                  #              Directorship: Frank Neese              #
                  # Max Planck Institute for Chemical Energy Conversion #
                  #                  D-45470 Muelheim/Ruhr              #
                  #                       Germany                       #
                  #                                                     #
                  #                  All rights reserved                #
                  #                        -***-                        #
                  #######################################################


                         Program Version 3.0.3 - RELEASE   -


 With contributions from (in alphabetic order):
   Ute Becker             : Parallelization
   Dmytro Bykov           : SCF Hessian
   Dmitry Ganyushin       : Spin-Orbit,Spin-Spin,Magnetic field MRCI
   Andreas Hansen         : Spin unrestricted coupled pair/coupled cluster methods
   Dimitrios Liakos       : Extrapolation schemes; parallel MDCI
   Robert Izsak           : Overlap fitted RIJCOSX, COSX-SCS-MP3
   Christian Kollmar      : KDIIS, OOCD, Brueckner-CCSD(T), CCSD density
   Simone Kossmann        : Meta GGA functionals, TD-DFT gradient, OOMP2, MP2 Hessian
   Taras Petrenko         : DFT Hessian,TD-DFT gradient, ASA and ECA modules, normal mode analysis, Resonance Raman, ABS, FL, XAS/XES, NRVS
   Christoph Reimann      : Effective Core Potentials
   Michael Roemelt        : Restricted open shell CIS
   Christoph Riplinger    : Improved optimizer, TS searches, QM/MM, DLPNO-CCSD
   Barbara Sandhoefer     : DKH picture change effects
   Igor Schapiro          : Molecular dynamics
   Kantharuban Sivalingam : CASSCF convergence, NEVPT2
   Boris Wezisla          : Elementary symmetry handling
   Frank Wennmohs         : Technical directorship


 We gratefully acknowledge several colleagues who have allowed us to
 interface, adapt or use parts of their codes:
   Stefan Grimme, W. Hujo, H. Kruse, T. Risthaus : VdW corrections, initial TS optimization,
                                                   DFT functionals, gCP
   Ed Valeev                                     : LibInt (2-el integral package), F12 methods
   Garnet Chan, S. Sharma, R. Olivares           : DMRG
   Ulf Ekstrom                                   : XCFun DFT Library
   Mihaly Kallay                                 : mrcc  (arbitrary order and MRCC methods)
   Andreas Klamt, Michael Diedenhofen            : otool_cosmo (COSMO solvation model)
   Frank Weinhold                                : gennbo (NPA and NBO analysis)
   Christopher J. Cramer and Donald G. Truhlar   : smd solvation model


 Your calculation uses the libint2 library for the computation of 2-el integrals
 For citations please refer to: http://libint.valeyev.net

 This ORCA versions uses:
   CBLAS   interface :  Fast vector & matrix operations
   LAPACKE interface :  Fast linear algebra routines
   SCALAPACK package :  Parallel linear algebra routines


leaving
================================================================================
                                        WARNINGS
                       Please study these warnings very carefully!
================================================================================
Now building the actual basis set

WARNING: Direct SCF is incompatible with Method<>HF and Method<>DFT
  ===> : conventional SCF is chosen

WARNING: The NDO methods need Guess=HUECKEL or Guess=HCORE or Guess=MOREAD
  ===> : Guess is set to Hueckel

WARNING: The NDO methods need %rel::SOCType==1
  ===> : %rel::SOCType is set to 1

WARNING: The NDO methods cannot have frozencore=1
  ===> : %method FrozenCore=0 end


INFO   : the flag for use of LIBINT has been found!

================================================================================
                                       INPUT FILE
================================================================================
NAME = /Users/mattyjones/GoogleDrive/Boise/Code/MorphCT/tests/output_EZ/donor_polymer/chromophores/input_orca/pair/00011-00025.inp
|  1> # ================================================================
|  2> # Orca input file made by Matty Jones
|  3> # ================================================================
|  4> ! ZINDO/S 
|  5> ! NOPOP
|  6> ! NOMOPRINT
|  7> * xyz 0   1
|  8>  C  28.96798  -8.71445  0.55546
|  9>  C  29.78998  -7.82801  1.25290
| 10>  C  30.37162  -8.37960  2.43684
| 11>  C  30.00705  -9.70830  2.67547
| 12>  S  28.99844  -10.12486  1.42663
| 13>  H  30.00956  -6.76332  0.90268
| 14>  C  31.38169  -7.58983  3.42954
| 15>  C  32.71253  -6.51282  3.15591
| 16>  C  33.42048  -5.70514  1.82487
| 17>  H  34.56420  -5.84355  1.89242
| 18>  H  33.03116  -6.20079  0.85988
| 19>  H  33.60673  -7.14323  3.55390
| 20>  H  32.51301  -5.66158  3.91672
| 21>  H  31.89988  -8.39901  4.09550
| 22>  H  30.69485  -6.95982  4.14989
| 23>  C  33.06941  -4.10644  1.81536
| 24>  C  33.82371  -3.15782  0.62980
| 25>  C  33.43319  -1.51791  0.69237
| 26>  H  33.09276  -1.23978  1.76252
| 27>  H  32.57766  -1.30017  -0.05618
| 28>  H  34.36435  -0.89172  0.40800
| 29>  H  34.96341  -3.25886  0.76368
| 30>  H  33.51556  -3.56307  -0.40243
| 31>  H  31.92849  -3.97227  1.68374
| 32>  H  33.37935  -3.65496  2.83610
| 33>  C  -28.31896  7.98554  -3.48651
| 34>  C  -29.24108  7.31849  -2.67864
| 35>  C  -29.99118  8.17784  -1.81660
| 36>  C  -29.65969  9.53028  -1.94441
| 37>  S  -28.47266  9.59080  -3.10101
| 38>  H  -29.17996  6.19784  -2.48265
| 39>  C  -31.11554  7.59043  -0.80269
| 40>  C  -32.27884  6.56830  -1.54597
| 41>  C  -33.60586  5.65896  -0.95224
| 42>  H  -33.91216  6.14706  0.05001
| 43>  H  -34.46732  5.79688  -1.71145
| 44>  H  -31.64495  5.78835  -2.06211
| 45>  H  -32.76475  7.26075  -2.34150
| 46>  H  -31.70890  8.45674  -0.30565
| 47>  H  -30.60442  6.96953  0.03425
| 48>  C  -33.38046  4.05842  -0.70460
| 49>  C  -33.48015  3.07569  -2.09173
| 50>  C  -34.97534  2.49403  -2.60528
| 51>  H  -34.81047  1.55443  -3.26262
| 52>  H  -35.50479  3.31114  -3.23146
| 53>  H  -35.62461  2.21918  -1.68973
| 54>  H  -32.81549  2.15314  -1.88935
| 55>  H  -33.04658  3.67984  -2.96409
| 56>  H  -34.18515  3.67289  0.03145
| 57>  H  -32.33692  3.88517  -0.24010
| 58>  H  28.43631  -8.52579  -0.34195
| 59>  H  30.31158  -10.32101  3.48507
| 60>  H  -27.65943  7.55639  -4.19676
| 61>  H  -30.07926  10.34603  -1.41326
| 62> *
| 63> 
| 64>                          ****END OF INPUT****
================================================================================

                       ****************************
                       * Single Point Calculation *
                       ****************************

---------------------------------
CARTESIAN COORDINATES (ANGSTROEM)
---------------------------------
  C     28.967980   -8.714450    0.555460
  C     29.789980   -7.828010    1.252900
  C     30.371620   -8.379600    2.436840
  C     30.007050   -9.708300    2.675470
  S     28.998440  -10.124860    1.426630
  H     30.009560   -6.763320    0.902680
  C     31.381690   -7.589830    3.429540
  C     32.712530   -6.512820    3.155910
  C     33.420480   -5.705140    1.824870
  H     34.564200   -5.843550    1.892420
  H     33.031160   -6.200790    0.859880
  H     33.606730   -7.143230    3.553900
  H     32.513010   -5.661580    3.916720
  H     31.899880   -8.399010    4.095500
  H     30.694850   -6.959820    4.149890
  C     33.069410   -4.106440    1.815360
  C     33.823710   -3.157820    0.629800
  C     33.433190   -1.517910    0.692370
  H     33.092760   -1.239780    1.762520
  H     32.577660   -1.300170   -0.056180
  H     34.364350   -0.891720    0.408000
  H     34.963410   -3.258860    0.763680
  H     33.515560   -3.563070   -0.402430
  H     31.928490   -3.972270    1.683740
  H     33.379350   -3.654960    2.836100
  C    -28.318960    7.985540   -3.486510
  C    -29.241080    7.318490   -2.678640
  C    -29.991180    8.177840   -1.816600
  C    -29.659690    9.530280   -1.944410
  S    -28.472660    9.590800   -3.101010
  H    -29.179960    6.197840   -2.482650
  C    -31.115540    7.590430   -0.802690
  C    -32.278840    6.568300   -1.545970
  C    -33.605860    5.658960   -0.952240
  H    -33.912160    6.147060    0.050010
  H    -34.467320    5.796880   -1.711450
  H    -31.644950    5.788350   -2.062110
  H    -32.764750    7.260750   -2.341500
  H    -31.708900    8.456740   -0.305650
  H    -30.604420    6.969530    0.034250
  C    -33.380460    4.058420   -0.704600
  C    -33.480150    3.075690   -2.091730
  C    -34.975340    2.494030   -2.605280
  H    -34.810470    1.554430   -3.262620
  H    -35.504790    3.311140   -3.231460
  H    -35.624610    2.219180   -1.689730
  H    -32.815490    2.153140   -1.889350
  H    -33.046580    3.679840   -2.964090
  H    -34.185150    3.672890    0.031450
  H    -32.336920    3.885170   -0.240100
  H     28.436310   -8.525790   -0.341950
  H     30.311580  -10.321010    3.485070
  H    -27.659430    7.556390   -4.196760
  H    -30.079260   10.346030   -1.413260

----------------------------
CARTESIAN COORDINATES (A.U.)
----------------------------
  NO LB      ZA    FRAG    MASS        X           Y           Z
   0 C     4.0000    0    12.011         54.741548852908139        -16.467923907750052          1.049667278347898
   1 C     4.0000    0    12.011         56.294903734991408        -14.792795073596897          2.367637873189936
   2 C     4.0000    0    12.011         57.394044043525362        -15.835149111806521          4.604960232184663
   3 C     4.0000    0    12.011         56.705106586881691        -18.346028225947688          5.055905579522291
   4 S     6.0000    0    32.060         54.799109910947379        -19.133212544293922          2.695939994436075
   5 H     1.0000    0     1.008         56.709849799477837        -12.780822556072280          1.705817986568036
   6 C     4.0000    0    12.011         59.302799719615201        -14.342700103019533          6.480891365328289
   7 C     4.0000    0    12.011         61.817722847682965        -12.307446159525005          5.963805603303418
   8 C     4.0000    0    12.011         63.155554464192505        -10.781152155679489          3.448504530008874
   9 H     1.0000    0     1.008         65.316872038080930        -11.042709149875529          3.576155530355255
  10 H     1.0000    0     1.008         62.419846285734288        -11.717794913957558          1.624937708036206
  11 H     1.0000    0     1.008         63.507515956635345        -13.498748411610302          6.715897707342736
  12 H     1.0000    0     1.008         61.440684689442996        -10.698835685285880          7.401528143252045
  13 H     1.0000    0     1.008         60.282036904951859        -15.871828696065933          7.739373381474487
  14 H     1.0000    0     1.008         58.004860221792732        -13.152153741387805          7.842155585898463
  15 C     4.0000    0    12.011         62.492128310356776         -7.760046985379585          3.430533234475284
  16 C     4.0000    0    12.011         63.917548733173575         -5.967414980219207          1.190149519143604
  17 C     4.0000    0    12.011         63.179572883354659         -2.868434195940407          1.308389683343057
  18 H     1.0000    0     1.008         62.536253415583836         -2.342844666312890          3.330680105558885
  19 H     1.0000    0     1.008         61.562855484001005         -2.456965227540394         -0.106164814203696
  20 H     1.0000    0     1.008         64.939210270216762         -1.685106588140258          0.771008262639871
  21 H     1.0000    0     1.008         66.071269608003632         -6.158352908790610          1.443146053952981
  22 H     1.0000    0     1.008         63.335229625005745         -6.733226495990794         -0.760482488073929
  23 H     1.0000    0     1.008         60.336101969643344         -7.506502429991370          3.181807480728568
  24 H     1.0000    0     1.008         63.077830028304334         -6.906873430436818          5.359452288414062
  25 C     4.0000    0    12.011        -53.515078797470572         15.090483631473512         -6.588549063177783
  26 C     4.0000    0    12.011        -55.257633060082036         13.829941813841341         -5.061896011366822
  27 C     4.0000    0    12.011        -56.675116633136362         15.453877967026568         -3.432876494881346
  28 C     4.0000    0    12.011        -56.048691317002813         18.009619179587027         -3.674402392057821
  29 S     6.0000    0    32.060        -53.805529704254269         18.123985405211940         -5.860059638551141
  30 H     1.0000    0     1.008        -55.142132998776766         11.712220221862491         -4.691528586379595
  31 C     4.0000    0    12.011        -58.799849109072063         14.343833938699886         -1.516864270437249
  32 C     4.0000    0    12.011        -60.998167520662662         12.412288165434957         -2.921459911258237
  33 C     4.0000    0    12.011        -63.505871894898831         10.693884602815007         -1.799472813765173
  34 H     1.0000    0     1.008        -64.084695009718914         11.616259928781968          0.094505203957402
  35 H     1.0000    0     1.008        -65.133795370226636         10.954515631205425         -3.234171791899526
  36 H     1.0000    0     1.008        -59.800289021631315         10.938396267283078         -3.896823158020352
  37 H     1.0000    0     1.008        -61.916404346396327         13.720829026868728         -4.424793742576610
  38 H     1.0000    0     1.008        -59.921137007895574         15.980922585777206         -0.577594792833031
  39 H     1.0000    0     1.008        -57.833972287502235         13.170502982148180          0.064723120086803
  40 C     4.0000    0    12.011        -63.079927624312980          7.669302336428686         -1.331501033960914
  41 C     4.0000    0    12.011        -63.268314422603595          5.812211772840254         -3.952796846107100
  42 C     4.0000    0    12.011        -66.093814040781311          4.713033669783619         -4.923265702182358
  43 H     1.0000    0     1.008        -65.782254893081713          2.937446994351211         -6.165458279054154
  44 H     1.0000    0     1.008        -67.094329542385921          6.257147791072013         -6.106574412721169
  45 H     1.0000    0     1.008        -67.320756527752351          4.193642441875364         -3.193126940270756
  46 H     1.0000    0     1.008        -62.012289050431491          4.068844927991204         -3.570354071124117
  47 H     1.0000    0     1.008        -62.448985862719354          6.953889816648779         -5.601318336294643
  48 H     1.0000    0     1.008        -64.600571347018075          6.940756220018026          0.059431886911823
  49 H     1.0000    0     1.008        -61.107922814520798          7.341907283726830         -0.453723244754493
  50 H     1.0000    0     1.008         53.736838159286229        -16.111408175324470         -0.646191851494372
  51 H     1.0000    0     1.008         57.280584886444736        -19.503882325462577          6.585827857544936
  52 H     1.0000    0     1.008        -52.268747720365489         14.279507661101208         -7.930727049795353
  53 H     1.0000    0     1.008        -56.841563711012149         19.551163273333287         -2.670674356025548

--------------------------------
INTERNAL COORDINATES (ANGSTROEM)
--------------------------------
 C      0   0   0   0.000000     0.000     0.000
 C      1   0   0   1.395666     0.000     0.000
 C      2   1   0   1.429780   114.102     0.000
 C      3   2   1   1.398320   113.693     0.000
 S      1   2   3   1.658047   105.480     0.000
 H      2   1   3   1.142118   123.510   178.347
 C      3   2   1   1.621552   124.920   179.089
 C      7   3   2   1.733770   133.163   318.749
 C      8   7   3   1.710324   137.215     7.996
 H      9   8   7   1.154043   107.941   225.751
 H      9   8   7   1.152582   107.980   343.926
 H      8   7   3   1.164219   101.493   246.267
 H      8   7   3   1.158986   102.739   134.822
 H      7   3   2   1.169100   106.721   196.142
 H      7   3   2   1.177950   105.763    83.257
 C      9   8   7   1.636821   112.147   105.331
 C     16   9   8   1.695406   117.073   174.562
 C     17  16   9   1.686928   114.519   180.815
 H     18  17  16   1.156923   109.641    24.012
 H     18  17  16   1.157441   109.269   263.871
 H     18  17  16   1.157601   109.301   144.053
 H     17  16   9   1.151976   108.049   301.278
 H     17  16   9   1.150949   108.121    60.024
 H     16   9   8   1.156297   109.003   296.284
 H     16   9   8   1.158364   108.552    54.420
 C      1   2   3  59.808199   114.870   117.437
 C     26   1   2   1.395677   117.405   254.898
 C     27  26   1   1.429771   114.101   123.023
 C     28  27  26   1.398326   113.693     0.000
 S     26   1   2   1.658039   110.085    15.540
 H     27  26   1   1.139300   122.293   321.042
 C     28  27  26   1.623961   121.484   179.878
 C     32  28  27   1.717697   114.454   308.142
 C     33  32  28   1.714758   133.617   177.191
 H     34  33  32   1.156100   106.339    22.682
 H     34  33  32   1.156519   106.613   138.594
 H     33  32  28   1.129840   103.208    54.188
 H     33  32  28   1.161234   103.003   300.252
 H     32  28  27   1.161731   110.549   187.980
 H     32  28  27   1.160702   109.804    68.448
 C     34  33  32   1.635194   117.699   260.762
 C     41  34  33   1.702888   115.686   279.535
 C     42  41  34   1.684534   119.971   273.457
 H     43  42  41   1.158502   109.069   202.078
 H     43  42  41   1.157621   109.095    82.745
 H     43  42  41   1.155563   109.834   322.297
 H     42  41  34   1.154915   106.532   152.227
 H     42  41  34   1.146295   107.074    34.932
 H     41  34  33   1.156689   109.070   159.456
 H     41  34  33   1.155314   109.401    40.537
 H      1   2   3   1.060005   127.260   180.000
 H      4   3   2   1.060002   127.206   180.000
 H     26   1   2   1.060002    48.415   138.045
 H     29  28  27   1.060003   127.206   180.000

---------------------------
INTERNAL COORDINATES (A.U.)
---------------------------
 C      0   0   0   0.000000     0.000     0.000
 C      1   0   0   2.637426     0.000     0.000
 C      2   1   0   2.701892   114.102     0.000
 C      3   2   1   2.642442   113.693     0.000
 S      1   2   3   3.133256   105.480     0.000
 H      2   1   3   2.158291   123.510   178.347
 C      3   2   1   3.064289   124.920   179.089
 C      7   3   2   3.276351   133.163   318.749
 C      8   7   3   3.232044   137.215     7.996
 H      9   8   7   2.180826   107.941   225.751
 H      9   8   7   2.178064   107.980   343.926
 H      8   7   3   2.200056   101.493   246.267
 H      8   7   3   2.190167   102.739   134.822
 H      7   3   2   2.209280   106.721   196.142
 H      7   3   2   2.226003   105.763    83.257
 C      9   8   7   3.093143   112.147   105.331
 C     16   9   8   3.203853   117.073   174.562
 C     17  16   9   3.187832   114.519   180.815
 H     18  17  16   2.186267   109.641    24.012
 H     18  17  16   2.187246   109.269   263.871
 H     18  17  16   2.187548   109.301   144.053
 H     17  16   9   2.176919   108.049   301.278
 H     17  16   9   2.174978   108.121    60.024
 H     16   9   8   2.185086   109.003   296.284
 H     16   9   8   2.188991   108.552    54.420
 C      1   2   3 113.021117   114.870   117.437
 C     26   1   2   2.637448   117.405   254.898
 C     27  26   1   2.701876   114.101   123.023
 C     28  27  26   2.642453   113.693     0.000
 S     26   1   2   3.133240   110.085    15.540
 H     27  26   1   2.152965   122.293   321.042
 C     28  27  26   3.068842   121.484   179.878
 C     32  28  27   3.245976   114.454   308.142
 C     33  32  28   3.240424   133.617   177.191
 H     34  33  32   2.184712   106.339    22.682
 H     34  33  32   2.185503   106.613   138.594
 H     33  32  28   2.135089   103.208    54.188
 H     33  32  28   2.194414   103.003   300.252
 H     32  28  27   2.195353   110.549   187.980
 H     32  28  27   2.193409   109.804    68.448
 C     34  33  32   3.090069   117.699   260.762
 C     41  34  33   3.217991   115.686   279.535
 C     42  41  34   3.183308   119.971   273.457
 H     43  42  41   2.189251   109.069   202.078
 H     43  42  41   2.187588   109.095    82.745
 H     43  42  41   2.183698   109.834   322.297
 H     42  41  34   2.182473   106.532   152.227
 H     42  41  34   2.166184   107.074    34.932
 H     41  34  33   2.185825   109.070   159.456
 H     41  34  33   2.183228   109.401    40.537
 H      1   2   3   2.003119   127.260   180.000
 H      4   3   2   2.003113   127.206   180.000
 H     26   1   2   2.003114    48.415   138.045
 H     29  28  27   2.003116   127.206   180.000

----------------------------
SLATER BASIS SET DIM= 120
----------------------------
  0 C     2 shells
 l=0 nsto= 1
    2       1.625000000000        1.000000000000
 l=1 nsto= 1
    2       1.625000000000        1.000000000000
  1 C     2 shells
 l=0 nsto= 1
    2       1.625000000000        1.000000000000
 l=1 nsto= 1
    2       1.625000000000        1.000000000000
  2 C     2 shells
 l=0 nsto= 1
    2       1.625000000000        1.000000000000
 l=1 nsto= 1
    2       1.625000000000        1.000000000000
  3 C     2 shells
 l=0 nsto= 1
    2       1.625000000000        1.000000000000
 l=1 nsto= 1
    2       1.625000000000        1.000000000000
  4 S     2 shells
 l=0 nsto= 1
    3       1.925000000000        1.000000000000
 l=1 nsto= 1
    3       1.925000000000        1.000000000000
  5 H     1 shells
 l=0 nsto= 1
    1       1.200000000000        1.000000000000
  6 C     2 shells
 l=0 nsto= 1
    2       1.625000000000        1.000000000000
 l=1 nsto= 1
    2       1.625000000000        1.000000000000
  7 C     2 shells
 l=0 nsto= 1
    2       1.625000000000        1.000000000000
 l=1 nsto= 1
    2       1.625000000000        1.000000000000
  8 C     2 shells
 l=0 nsto= 1
    2       1.625000000000        1.000000000000
 l=1 nsto= 1
    2       1.625000000000        1.000000000000
  9 H     1 shells
 l=0 nsto= 1
    1       1.200000000000        1.000000000000
 10 H     1 shells
 l=0 nsto= 1
    1       1.200000000000        1.000000000000
 11 H     1 shells
 l=0 nsto= 1
    1       1.200000000000        1.000000000000
 12 H     1 shells
 l=0 nsto= 1
    1       1.200000000000        1.000000000000
 13 H     1 shells
 l=0 nsto= 1
    1       1.200000000000        1.000000000000
 14 H     1 shells
 l=0 nsto= 1
    1       1.200000000000        1.000000000000
 15 C     2 shells
 l=0 nsto= 1
    2       1.625000000000        1.000000000000
 l=1 nsto= 1
    2       1.625000000000        1.000000000000
 16 C     2 shells
 l=0 nsto= 1
    2       1.625000000000        1.000000000000
 l=1 nsto= 1
    2       1.625000000000        1.000000000000
 17 C     2 shells
 l=0 nsto= 1
    2       1.625000000000        1.000000000000
 l=1 nsto= 1
    2       1.625000000000        1.000000000000
 18 H     1 shells
 l=0 nsto= 1
    1       1.200000000000        1.000000000000
 19 H     1 shells
 l=0 nsto= 1
    1       1.200000000000        1.000000000000
 20 H     1 shells
 l=0 nsto= 1
    1       1.200000000000        1.000000000000
 21 H     1 shells
 l=0 nsto= 1
    1       1.200000000000        1.000000000000
 22 H     1 shells
 l=0 nsto= 1
    1       1.200000000000        1.000000000000
 23 H     1 shells
 l=0 nsto= 1
    1       1.200000000000        1.000000000000
 24 H     1 shells
 l=0 nsto= 1
    1       1.200000000000        1.000000000000
 25 C     2 shells
 l=0 nsto= 1
    2       1.625000000000        1.000000000000
 l=1 nsto= 1
    2       1.625000000000        1.000000000000
 26 C     2 shells
 l=0 nsto= 1
    2       1.625000000000        1.000000000000
 l=1 nsto= 1
    2       1.625000000000        1.000000000000
 27 C     2 shells
 l=0 nsto= 1
    2       1.625000000000        1.000000000000
 l=1 nsto= 1
    2       1.625000000000        1.000000000000
 28 C     2 shells
 l=0 nsto= 1
    2       1.625000000000        1.000000000000
 l=1 nsto= 1
    2       1.625000000000        1.000000000000
 29 S     2 shells
 l=0 nsto= 1
    3       1.925000000000        1.000000000000
 l=1 nsto= 1
    3       1.925000000000        1.000000000000
 30 H     1 shells
 l=0 nsto= 1
    1       1.200000000000        1.000000000000
 31 C     2 shells
 l=0 nsto= 1
    2       1.625000000000        1.000000000000
 l=1 nsto= 1
    2       1.625000000000        1.000000000000
 32 C     2 shells
 l=0 nsto= 1
    2       1.625000000000        1.000000000000
 l=1 nsto= 1
    2       1.625000000000        1.000000000000
 33 C     2 shells
 l=0 nsto= 1
    2       1.625000000000        1.000000000000
 l=1 nsto= 1
    2       1.625000000000        1.000000000000
 34 H     1 shells
 l=0 nsto= 1
    1       1.200000000000        1.000000000000
 35 H     1 shells
 l=0 nsto= 1
    1       1.200000000000        1.000000000000
 36 H     1 shells
 l=0 nsto= 1
    1       1.200000000000        1.000000000000
 37 H     1 shells
 l=0 nsto= 1
    1       1.200000000000        1.000000000000
 38 H     1 shells
 l=0 nsto= 1
    1       1.200000000000        1.000000000000
 39 H     1 shells
 l=0 nsto= 1
    1       1.200000000000        1.000000000000
 40 C     2 shells
 l=0 nsto= 1
    2       1.625000000000        1.000000000000
 l=1 nsto= 1
    2       1.625000000000        1.000000000000
 41 C     2 shells
 l=0 nsto= 1
    2       1.625000000000        1.000000000000
 l=1 nsto= 1
    2       1.625000000000        1.000000000000
 42 C     2 shells
 l=0 nsto= 1
    2       1.625000000000        1.000000000000
 l=1 nsto= 1
    2       1.625000000000        1.000000000000
 43 H     1 shells
 l=0 nsto= 1
    1       1.200000000000        1.000000000000
 44 H     1 shells
 l=0 nsto= 1
    1       1.200000000000        1.000000000000
 45 H     1 shells
 l=0 nsto= 1
    1       1.200000000000        1.000000000000
 46 H     1 shells
 l=0 nsto= 1
    1       1.200000000000        1.000000000000
 47 H     1 shells
 l=0 nsto= 1
    1       1.200000000000        1.000000000000
 48 H     1 shells
 l=0 nsto= 1
    1       1.200000000000        1.000000000000
 49 H     1 shells
 l=0 nsto= 1
    1       1.200000000000        1.000000000000
 50 H     1 shells
 l=0 nsto= 1
    1       1.200000000000        1.000000000000
 51 H     1 shells
 l=0 nsto= 1
    1       1.200000000000        1.000000000000
 52 H     1 shells
 l=0 nsto= 1
    1       1.200000000000        1.000000000000
 53 H     1 shells
 l=0 nsto= 1
    1       1.200000000000        1.000000000000
------------------------------------------------------------------------------
                           ORCA NDO INTEGRAL CALCULATION
------------------------------------------------------------------------------

--------------
NDO PARAMETERS
--------------

Gamma integral treatment              ... Mataga-Nishimoto
Nuclear repulsuion treatment          ... Direct (ZA*ZB/RAB)
Interaction factors:
s-s (sigma) =    1.0000
s-p (sigma) =    1.0000
s-d (sigma) =    1.0000
p-p (sigma) =    1.2670  p-p(pi) =    0.5850
p-d (sigma) =    1.0000  p-d(pi) =    1.0000
d-d (sigma) =    1.0000  d-d(pi) =    1.0000 d-d (delta) =    1.0000

fGamma parameter for Mataga-Nishimoto gamma integrals:    1.2000

--------------------------
Parameters for Element H :
--------------------------
 One-electron parameters (in eV)
  U(s)  =   -13.060000 Beta(s) =    12.000000 Neff(s) =     1.000000
 One-center electron repulsion parameters (in eV)
  G(s,s)=    12.850000
--------------------------
Parameters for Element C :
--------------------------
 One-electron parameters (in eV)
  U(s)  =   -50.870766 Beta(s) =    17.000000 Neff(s) =     2.000000
  U(p)  =   -41.599980 Beta(p) =    17.000000 Neff(p) =     2.000000 
 One-center electron repulsion parameters (in eV)
  G(s,s)=    11.110000
  G(s,p)=    11.110000 G(p,p)  =    11.110000
 Slater-Condon parameters (in eV)
 F2(p,p)=     4.5098 G1(s,p)=    6.8977
--------------------------
Parameters for Element S :
--------------------------
 One-electron parameters (in eV)
  U(s)  =   -69.509597 Beta(s) =    15.000000 Neff(s) =     2.000000
  U(p)  =   -60.725746 Beta(p) =    15.000000 Neff(p) =     4.000000 
 One-center electron repulsion parameters (in eV)
  G(s,s)=    10.090000
  G(s,p)=    10.090000 G(p,p)  =    10.090000
 Slater-Condon parameters (in eV)
 F2(p,p)=     4.5377 G1(s,p)=    3.0756

 Number of atoms                    ....   54
 Number of basis functions          ....  120

 Overlap integrals                  .... done
 One electron matrix                .... done
 Nuclear repulsion                  .... done
 Integral list                      .... done
 Electron-electron repulsion        .... done
-------------------------------------------------------------------------------
                                 ORCA SCF
-------------------------------------------------------------------------------

------------
SCF SETTINGS
------------
Hamiltonian:
 ZDO-Hamiltonian        Method          .... INDO


General Settings:
 Integral files         IntName         .... /Users/mattyjones/GoogleDrive/Boise/Code/MorphCT/tests/output_EZ/donor_polymer/chromophores/input_orca/pair/00011-00025
 Hartree-Fock type      HFTyp           .... RHF
 Total Charge           Charge          ....    0
 Multiplicity           Mult            ....    1
 Number of Electrons    NEL             ....  124
 Basis Dimension        Dim             ....  120
 Nuclear Repulsion      ENuc            ....    612.1262284204 Eh

Convergence Acceleration:
 DIIS                   CNVDIIS         .... on
   Start iteration      DIISMaxIt       ....    12
   Startup error        DIISStart       ....  0.200000
   # of expansion vecs  DIISMaxEq       ....     5
   Bias factor          DIISBfac        ....   1.050
   Max. coefficient     DIISMaxC        ....  10.000
 Newton-Raphson         CNVNR           .... off
 SOSCF                  CNVSOSCF        .... on
   Start iteration      SOSCFMaxIt      ....   150
   Startup grad/error   SOSCFStart      ....  0.003300
 Level Shifting         CNVShift        .... on
   Level shift para.    LevelShift      ....    0.2500
   Turn off err/grad.   ShiftErr        ....    0.0010
 Zerner damping         CNVZerner       .... off
 Static damping         CNVDamp         .... on
   Fraction old density DampFac         ....    0.7000
   Max. Damping (<1)    DampMax         ....    0.9800
   Min. Damping (>=0)   DampMin         ....    0.0000
   Turn off err/grad.   DampErr         ....    0.1000
 Fernandez-Rico         CNVRico         .... off

SCF Procedure:
 Maximum # iterations   MaxIter         ....   125
 SCF integral mode      SCFMode         .... Conventional
 Integral Buffer length BufferLength    .... 1048576
 Integral index format  IndFormat       ....     0
 Integral value format  ValFormat       ....     0
 Integral Storage       Thresh          ....  1.000e-08 Eh

Convergence Tolerance:
 Convergence Check Mode ConvCheckMode   .... Total+1el-Energy
 Energy Change          TolE            ....  1.000e-06 Eh
 1-El. energy change                    ....  1.000e-03 Eh
 Orbital Gradient       TolG            ....  5.000e-05
 Orbital Rotation angle TolX            ....  5.000e-05
 DIIS Error             TolErr          ....  1.000e-06


Diagonalization of the overlap matrix:
Smallest eigenvalue                        ... 1.696e-01
Time for diagonalization                   ...    0.003 sec
Threshold for overlap eigenvalues          ... 1.000e-08
Number of eigenvalues below threshold      ... 0
Time for construction of square roots      ...    0.001 sec
Total time needed                          ...    0.004 sec

-------------------------------
INITIAL GUESS: EXTENDED HUECKEL
-------------------------------
EHT matrix was read from disk
EHT matrix was diagonalized
Initial density was built
                      ------------------
                      INITIAL GUESS DONE
                      ------------------

 InCore treatment chosen:
   Memory dedicated               ...    1024 MB
   Memory needed                  ...      0 MB
   Number of tiny    integrals    ...       0
   Number of small   integrals    ...       0
   Number of regular integrals    ...    7392

--------------
SCF ITERATIONS
--------------
ITER       Energy         Delta-E        Max-DP      RMS-DP      [F,P]     Damp
  0    -21.4522051105   0.000000000000 0.04042785  0.00144778  0.1131263 0.7000
  1    -21.4940893434  -0.041884232865 0.03843286  0.00136377  0.0772089 0.7000
                               ***Turning on DIIS***
  2    -21.5250925127  -0.031003169383 0.09820100  0.00350035  0.0490031 0.0000
  3    -21.6060678784  -0.080975365620 0.01907913  0.00072452  0.0220381 0.0000
  4    -21.5906371371   0.015430741272 0.01105633  0.00049745  0.0066528 0.0000
  5    -21.6080636442  -0.017426507120 0.00750006  0.00033669  0.0038759 0.0000
  6    -21.6108331606  -0.002769516387 0.00536007  0.00023941  0.0020382 0.0000
                      *** Initiating the SOSCF procedure ***
                           *** Shutting down DIIS ***
                      *** Re-Reading the Fockian *** 
                      *** Removing any level shift *** 
ITER      Energy       Delta-E        Grad      Rot      Max-DP    RMS-DP
  7    -21.60663964   0.0041935205  0.003033  0.003033  0.003198  0.000135
  8    -21.60469136   0.0019482759  0.000825  0.002277  0.001582  0.000063
  9    -21.60470629  -0.0000149257  0.000362  0.002223  0.001774  0.000067
 10    -21.60471179  -0.0000055028  0.000032  0.000065  0.000115  0.000004
                 **** Energy Check signals convergence ****
              ***Rediagonalizing the Fockian in SOSCF/NRSCF***

               *****************************************************
               *                     SUCCESS                       *
               *           SCF CONVERGED AFTER  11 CYCLES          *
               *****************************************************


----------------
TOTAL SCF ENERGY
----------------

Total Energy       :          -21.60471184 Eh            -587.89410 eV

Components:
Nuclear Repulsion  :          612.12622842 Eh           16656.80149 eV
Electronic Energy  :         -633.73094026 Eh          -17244.69559 eV

One Electron Energy:        -1177.15053128 Eh          -32031.89443 eV
Two Electron Energy:          543.41959101 Eh           14787.19884 eV


---------------
SCF CONVERGENCE
---------------

  Last Energy change         ...   -4.8136e-08  Tolerance :   1.0000e-06
  Last MAX-Density change    ...    4.6847e-05  Tolerance :   1.0000e-05
  Last RMS-Density change    ...    1.3027e-06  Tolerance :   1.0000e-06
  Last Orbital Gradient      ...    9.1783e-06  Tolerance :   5.0000e-05
  Last Orbital Rotation      ...    2.4961e-05  Tolerance :   5.0000e-05

             **** THE GBW FILE WAS UPDATED (/Users/mattyjones/GoogleDrive/Boise/Code/MorphCT/tests/output_EZ/donor_polymer/chromophores/input_orca/pair/00011-00025.gbw) ****
             **** DENSITY FILE WAS UPDATED (/Users/mattyjones/GoogleDrive/Boise/Code/MorphCT/tests/output_EZ/donor_polymer/chromophores/input_orca/pair/00011-00025.scfp.tmp) ****
             **** ENERGY FILE WAS UPDATED (/Users/mattyjones/GoogleDrive/Boise/Code/MorphCT/tests/output_EZ/donor_polymer/chromophores/input_orca/pair/00011-00025.en.tmp) ****
----------------
ORBITAL ENERGIES
----------------

  NO   OCC          E(Eh)            E(eV) 
   0   2.0000      -1.558008       -42.3956 
   1   2.0000      -1.554959       -42.3126 
   2   2.0000      -1.390172       -37.8285 
   3   2.0000      -1.388906       -37.7940 
   4   2.0000      -1.283726       -34.9320 
   5   2.0000      -1.283199       -34.9176 
   6   2.0000      -1.195666       -32.5357 
   7   2.0000      -1.186365       -32.2826 
   8   2.0000      -1.116156       -30.3721 
   9   2.0000      -1.108949       -30.1760 
  10   2.0000      -1.039345       -28.2820 
  11   2.0000      -1.036828       -28.2135 
  12   2.0000      -0.969297       -26.3759 
  13   2.0000      -0.959949       -26.1215 
  14   2.0000      -0.919269       -25.0146 
  15   2.0000      -0.886331       -24.1183 
  16   2.0000      -0.877915       -23.8893 
  17   2.0000      -0.844573       -22.9820 
  18   2.0000      -0.828483       -22.5442 
  19   2.0000      -0.825437       -22.4613 
  20   2.0000      -0.770713       -20.9722 
  21   2.0000      -0.763459       -20.7748 
  22   2.0000      -0.727545       -19.7975 
  23   2.0000      -0.711690       -19.3661 
  24   2.0000      -0.707968       -19.2648 
  25   2.0000      -0.696856       -18.9624 
  26   2.0000      -0.684041       -18.6137 
  27   2.0000      -0.680674       -18.5221 
  28   2.0000      -0.633856       -17.2481 
  29   2.0000      -0.629532       -17.1304 
  30   2.0000      -0.623572       -16.9683 
  31   2.0000      -0.617203       -16.7950 
  32   2.0000      -0.600248       -16.3336 
  33   2.0000      -0.586842       -15.9688 
  34   2.0000      -0.578626       -15.7452 
  35   2.0000      -0.577390       -15.7116 
  36   2.0000      -0.567537       -15.4435 
  37   2.0000      -0.563422       -15.3315 
  38   2.0000      -0.557201       -15.1622 
  39   2.0000      -0.549794       -14.9606 
  40   2.0000      -0.531115       -14.4524 
  41   2.0000      -0.524558       -14.2740 
  42   2.0000      -0.521426       -14.1887 
  43   2.0000      -0.519904       -14.1473 
  44   2.0000      -0.507101       -13.7989 
  45   2.0000      -0.506758       -13.7896 
  46   2.0000      -0.494305       -13.4507 
  47   2.0000      -0.492749       -13.4084 
  48   2.0000      -0.488390       -13.2898 
  49   2.0000      -0.488363       -13.2890 
  50   2.0000      -0.483214       -13.1489 
  51   2.0000      -0.473321       -12.8797 
  52   2.0000      -0.470785       -12.8107 
  53   2.0000      -0.468768       -12.7558 
  54   2.0000      -0.456259       -12.4154 
  55   2.0000      -0.449852       -12.2411 
  56   2.0000      -0.437481       -11.9045 
  57   2.0000      -0.435218       -11.8429 
  58   2.0000      -0.357474        -9.7274 
  59   2.0000      -0.356028        -9.6880 
  60   2.0000      -0.305667        -8.3176 
  61   2.0000      -0.305251        -8.3063 
  62   0.0000       0.006452         0.1756 
  63   0.0000       0.006733         0.1832 
  64   0.0000       0.054223         1.4755 
  65   0.0000       0.061905         1.6845 
  66   0.0000       0.070167         1.9093 
  67   0.0000       0.074294         2.0216 
  68   0.0000       0.084505         2.2995 
  69   0.0000       0.086497         2.3537 
  70   0.0000       0.102789         2.7970 
  71   0.0000       0.103438         2.8147 
  72   0.0000       0.106938         2.9099 
  73   0.0000       0.107084         2.9139 
  74   0.0000       0.123764         3.3678 
  75   0.0000       0.125302         3.4096 
  76   0.0000       0.139853         3.8056 
  77   0.0000       0.143098         3.8939 
  78   0.0000       0.156860         4.2684 
  79   0.0000       0.160846         4.3768 
  80   0.0000       0.165178         4.4947 
  81   0.0000       0.166628         4.5342 
  82   0.0000       0.173009         4.7078 
  83   0.0000       0.173876         4.7314 
  84   0.0000       0.202698         5.5157 
  85   0.0000       0.204339         5.5603 
  86   0.0000       0.227679         6.1955 
  87   0.0000       0.230159         6.2629 
  88   0.0000       0.233331         6.3493 
  89   0.0000       0.235532         6.4091 
  90   0.0000       0.235819         6.4169 
  91   0.0000       0.236314         6.4304 
  92   0.0000       0.238115         6.4794 
  93   0.0000       0.238424         6.4878 
  94   0.0000       0.238880         6.5003 
  95   0.0000       0.239216         6.5094 
  96   0.0000       0.240041         6.5319 
  97   0.0000       0.242063         6.5869 
  98   0.0000       0.242225         6.5913 
  99   0.0000       0.244667         6.6577 
 100   0.0000       0.244789         6.6610 
 101   0.0000       0.250826         6.8253 
 102   0.0000       0.253226         6.8906 
 103   0.0000       0.260393         7.0857 
 104   0.0000       0.265939         7.2366 
 105   0.0000       0.266198         7.2436 
 106   0.0000       0.281824         7.6688 
 107   0.0000       0.282694         7.6925 
 108   0.0000       0.297725         8.1015 
 109   0.0000       0.309354         8.4179 
 110   0.0000       0.309443         8.4204 
 111   0.0000       0.312172         8.4946 
 112   0.0000       0.339790         9.2462 
 113   0.0000       0.339873         9.2484 
 114   0.0000       0.354845         9.6558 
 115   0.0000       0.360323         9.8049 
 116   0.0000       0.410813        11.1788 
 117   0.0000       0.412310        11.2195 
 118   0.0000       0.427587        11.6352 
 119   0.0000       0.433449        11.7947 
-------
TIMINGS
-------

Total SCF time: 0 days 0 hours 0 min 0 sec 

Total time                  ....       0.108 sec
Sum of individual times     ....       0.086 sec  ( 80.0%)

Fock matrix formation       ....       0.040 sec  ( 37.1%)
Diagonalization             ....       0.023 sec  ( 21.8%)
Density matrix formation    ....       0.005 sec  (  4.6%)
Population analysis         ....       0.000 sec  (  0.0%)
Initial guess               ....       0.003 sec  (  2.7%)
Orbital Transformation      ....       0.000 sec  (  0.0%)
Orbital Orthonormalization  ....       0.000 sec  (  0.0%)
DIIS solution               ....       0.010 sec  (  9.0%)
SOSCF solution              ....       0.005 sec  (  4.8%)

-------------------------   --------------------
FINAL SINGLE POINT ENERGY       -21.604711840890
-------------------------   --------------------


                            ***************************************
                            *     ORCA property calculations      *
                            ***************************************

                                    ---------------------
                                    Active property flags
                                    ---------------------
   (+) Dipole Moment


------------------------------------------------------------------------------
                       ORCA ELECTRIC PROPERTIES CALCULATION
------------------------------------------------------------------------------

Dipole Moment Calculation                       ... on
Quadrupole Moment Calculation                   ... off
Polarizability Calculation                      ... off
GBWName                                         ... /Users/mattyjones/GoogleDrive/Boise/Code/MorphCT/tests/output_EZ/donor_polymer/chromophores/input_orca/pair/00011-00025.gbw
Electron density file                           ... /Users/mattyjones/GoogleDrive/Boise/Code/MorphCT/tests/output_EZ/donor_polymer/chromophores/input_orca/pair/00011-00025.scfp.tmp

-------------
DIPOLE MOMENT
-------------
                                X             Y             Z
Electronic contribution:     20.18124     -15.87661     -38.59863
Nuclear contribution   :     -8.25045       8.01643      20.69376
                        -----------------------------------------
Total Dipole Moment    :     11.93079      -7.86018     -17.90488
                        -----------------------------------------
Magnitude (a.u.)       :     22.90657
Magnitude (Debye)      :     58.22387


Timings for individual modules:

Sum of individual times         ...        0.194 sec (=   0.003 min)
STO integral calculation        ...        0.051 sec (=   0.001 min)  26.5 %
SCF iterations                  ...        0.142 sec (=   0.002 min)  73.5 %
                             ****ORCA TERMINATED NORMALLY****
TOTAL RUN TIME: 0 days 0 hours 0 minutes 0 seconds 525 msec

