
                                 *****************
                                 * O   R   C   A *
                                 *****************

           --- An Ab Initio, DFT and Semiempirical electronic structure package ---

                  #######################################################
                  #                        -***-                        #
                  #  Department of molecular theory and spectroscopy    #
                  #              Directorship: Frank Neese              #
                  # Max Planck Institute for Chemical Energy Conversion #
                  #                  D-45470 Muelheim/Ruhr              #
                  #                       Germany                       #
                  #                                                     #
                  #                  All rights reserved                #
                  #                        -***-                        #
                  #######################################################


                         Program Version 3.0.3 - RELEASE   -


 With contributions from (in alphabetic order):
   Ute Becker             : Parallelization
   Dmytro Bykov           : SCF Hessian
   Dmitry Ganyushin       : Spin-Orbit,Spin-Spin,Magnetic field MRCI
   Andreas Hansen         : Spin unrestricted coupled pair/coupled cluster methods
   Dimitrios Liakos       : Extrapolation schemes; parallel MDCI
   Robert Izsak           : Overlap fitted RIJCOSX, COSX-SCS-MP3
   Christian Kollmar      : KDIIS, OOCD, Brueckner-CCSD(T), CCSD density
   Simone Kossmann        : Meta GGA functionals, TD-DFT gradient, OOMP2, MP2 Hessian
   Taras Petrenko         : DFT Hessian,TD-DFT gradient, ASA and ECA modules, normal mode analysis, Resonance Raman, ABS, FL, XAS/XES, NRVS
   Christoph Reimann      : Effective Core Potentials
   Michael Roemelt        : Restricted open shell CIS
   Christoph Riplinger    : Improved optimizer, TS searches, QM/MM, DLPNO-CCSD
   Barbara Sandhoefer     : DKH picture change effects
   Igor Schapiro          : Molecular dynamics
   Kantharuban Sivalingam : CASSCF convergence, NEVPT2
   Boris Wezisla          : Elementary symmetry handling
   Frank Wennmohs         : Technical directorship


 We gratefully acknowledge several colleagues who have allowed us to
 interface, adapt or use parts of their codes:
   Stefan Grimme, W. Hujo, H. Kruse, T. Risthaus : VdW corrections, initial TS optimization,
                                                   DFT functionals, gCP
   Ed Valeev                                     : LibInt (2-el integral package), F12 methods
   Garnet Chan, S. Sharma, R. Olivares           : DMRG
   Ulf Ekstrom                                   : XCFun DFT Library
   Mihaly Kallay                                 : mrcc  (arbitrary order and MRCC methods)
   Andreas Klamt, Michael Diedenhofen            : otool_cosmo (COSMO solvation model)
   Frank Weinhold                                : gennbo (NPA and NBO analysis)
   Christopher J. Cramer and Donald G. Truhlar   : smd solvation model


 Your calculation uses the libint2 library for the computation of 2-el integrals
 For citations please refer to: http://libint.valeyev.net

 This ORCA versions uses:
   CBLAS   interface :  Fast vector & matrix operations
   LAPACKE interface :  Fast linear algebra routines
   SCALAPACK package :  Parallel linear algebra routines


leaving
================================================================================
                                        WARNINGS
                       Please study these warnings very carefully!
================================================================================
Now building the actual basis set

WARNING: Direct SCF is incompatible with Method<>HF and Method<>DFT
  ===> : conventional SCF is chosen

WARNING: The NDO methods need Guess=HUECKEL or Guess=HCORE or Guess=MOREAD
  ===> : Guess is set to Hueckel

WARNING: The NDO methods need %rel::SOCType==1
  ===> : %rel::SOCType is set to 1

WARNING: The NDO methods cannot have frozencore=1
  ===> : %method FrozenCore=0 end


INFO   : the flag for use of LIBINT has been found!

================================================================================
                                       INPUT FILE
================================================================================
NAME = /Users/mattyjones/GoogleDrive/Boise/Code/MorphCT/tests/output_EZ/donor_polymer/chromophores/input_orca/pair/00018-00019.inp
|  1> # ================================================================
|  2> # Orca input file made by Matty Jones
|  3> # ================================================================
|  4> ! ZINDO/S 
|  5> ! NOPOP
|  6> ! NOMOPRINT
|  7> * xyz 0   1
|  8>  C  3.14646  -1.55212  -3.89410
|  9>  C  3.73601  -1.10248  -2.71166
| 10>  C  2.93000  -0.18338  -1.97014
| 11>  C  1.69777  0.09413  -2.57008
| 12>  S  1.67075  -0.79971  -3.96677
| 13>  H  4.56011  -1.67854  -2.15968
| 14>  C  3.59630  0.36130  -0.61262
| 15>  C  5.20145  0.84395  -0.96684
| 16>  C  6.32903  1.39472  0.15509
| 17>  H  6.26167  2.55145  0.16015
| 18>  H  7.37265  1.10112  -0.26207
| 19>  H  5.72553  -0.05400  -1.46962
| 20>  H  5.08903  1.68936  -1.74925
| 21>  H  3.01879  1.28311  -0.21675
| 22>  H  3.62743  -0.46757  0.19427
| 23>  C  6.22335  0.84682  1.68084
| 24>  C  5.31492  1.79182  2.73873
| 25>  C  3.72824  1.28558  2.94942
| 26>  H  3.17895  1.24986  1.93706
| 27>  H  3.18722  2.02956  3.65355
| 28>  H  3.73007  0.23236  3.43137
| 29>  H  5.83781  1.78304  3.76654
| 30>  H  5.29323  2.87175  2.33306
| 31>  H  7.29029  0.76354  2.12614
| 32>  H  5.75361  -0.21238  1.67196
| 33>  C  0.35478  0.62571  -1.80320
| 34>  C  -0.67645  -0.21192  -1.37558
| 35>  C  -1.75270  0.47096  -0.72780
| 36>  C  -1.57040  1.85478  -0.64348
| 37>  S  -0.10776  2.15635  -1.36471
| 38>  H  -0.65984  -1.34189  -1.53749
| 39>  C  -2.92772  -0.52859  -0.24834
| 40>  C  -4.54809  -0.35013  -0.67351
| 41>  C  -5.59869  0.49378  0.31535
| 42>  H  -5.02084  1.34801  0.82823
| 43>  H  -6.44217  0.94031  -0.33570
| 44>  H  -4.55626  0.17998  -1.70355
| 45>  H  -4.97523  -1.41537  -0.81304
| 46>  H  -2.93121  -0.52768  0.92382
| 47>  H  -2.66200  -1.62217  -0.57211
| 48>  C  -6.22766  -0.49858  1.44979
| 49>  C  -7.56515  -1.43764  1.00426
| 50>  C  -7.21326  -3.00408  0.48874
| 51>  H  -6.47779  -3.49513  1.23527
| 52>  H  -6.73959  -2.97197  -0.56515
| 53>  H  -8.19389  -3.61842  0.45370
| 54>  H  -8.11175  -0.89784  0.14547
| 55>  H  -8.26326  -1.51358  1.91789
| 56>  H  -5.40363  -1.23245  1.80345
| 57>  H  -6.55673  0.14289  2.35590
| 58>  H  3.55581  -2.23140  -4.59739
| 59>  H  -2.22914  2.56280  -0.20945
| 60> *
| 61> 
| 62>                          ****END OF INPUT****
================================================================================

                       ****************************
                       * Single Point Calculation *
                       ****************************

---------------------------------
CARTESIAN COORDINATES (ANGSTROEM)
---------------------------------
  C      3.146460   -1.552120   -3.894100
  C      3.736010   -1.102480   -2.711660
  C      2.930000   -0.183380   -1.970140
  C      1.697770    0.094130   -2.570080
  S      1.670750   -0.799710   -3.966770
  H      4.560110   -1.678540   -2.159680
  C      3.596300    0.361300   -0.612620
  C      5.201450    0.843950   -0.966840
  C      6.329030    1.394720    0.155090
  H      6.261670    2.551450    0.160150
  H      7.372650    1.101120   -0.262070
  H      5.725530   -0.054000   -1.469620
  H      5.089030    1.689360   -1.749250
  H      3.018790    1.283110   -0.216750
  H      3.627430   -0.467570    0.194270
  C      6.223350    0.846820    1.680840
  C      5.314920    1.791820    2.738730
  C      3.728240    1.285580    2.949420
  H      3.178950    1.249860    1.937060
  H      3.187220    2.029560    3.653550
  H      3.730070    0.232360    3.431370
  H      5.837810    1.783040    3.766540
  H      5.293230    2.871750    2.333060
  H      7.290290    0.763540    2.126140
  H      5.753610   -0.212380    1.671960
  C      0.354780    0.625710   -1.803200
  C     -0.676450   -0.211920   -1.375580
  C     -1.752700    0.470960   -0.727800
  C     -1.570400    1.854780   -0.643480
  S     -0.107760    2.156350   -1.364710
  H     -0.659840   -1.341890   -1.537490
  C     -2.927720   -0.528590   -0.248340
  C     -4.548090   -0.350130   -0.673510
  C     -5.598690    0.493780    0.315350
  H     -5.020840    1.348010    0.828230
  H     -6.442170    0.940310   -0.335700
  H     -4.556260    0.179980   -1.703550
  H     -4.975230   -1.415370   -0.813040
  H     -2.931210   -0.527680    0.923820
  H     -2.662000   -1.622170   -0.572110
  C     -6.227660   -0.498580    1.449790
  C     -7.565150   -1.437640    1.004260
  C     -7.213260   -3.004080    0.488740
  H     -6.477790   -3.495130    1.235270
  H     -6.739590   -2.971970   -0.565150
  H     -8.193890   -3.618420    0.453700
  H     -8.111750   -0.897840    0.145470
  H     -8.263260   -1.513580    1.917890
  H     -5.403630   -1.232450    1.803450
  H     -6.556730    0.142890    2.355900
  H      3.555810   -2.231400   -4.597390
  H     -2.229140    2.562800   -0.209450

----------------------------
CARTESIAN COORDINATES (A.U.)
----------------------------
  NO LB      ZA    FRAG    MASS        X           Y           Z
   0 C     4.0000    0    12.011          5.945947691337861         -2.933081726981853         -7.358782538102746
   1 C     4.0000    0    12.011          7.060035733591135         -2.083385268125501         -5.124294768308902
   2 C     4.0000    0    12.011          5.536897572389267         -0.346537978438479         -3.723025045483615
   3 C     4.0000    0    12.011          3.208320338387483          0.177879920986007         -4.856747342268330
   4 S     6.0000    0    32.060          3.157259938248931         -1.511232886558164         -7.496108936254803
   5 H     1.0000    0     1.008          8.617359040555639         -3.171980904832178         -4.081203736907049
   6 C     4.0000    0    12.011          6.796022095420997          0.682758052185748         -1.157684024162837
   7 C     4.0000    0    12.011          9.829315999284695          1.594834370722840         -1.827062815320423
   8 C     4.0000    0    12.011         11.960133393371621          2.635638833502648          0.293077626109847
   9 H     1.0000    0     1.008         11.832841440990682          4.821541744393378          0.302639640347488
  10 H     1.0000    0     1.008         13.932289381254517          2.080815240583369         -0.495240527916742
  11 H     1.0000    0     1.008         10.819683671550145         -0.102045211231748         -2.777179320933350
  12 H     1.0000    0     1.008          9.616872987309268          3.192427741601206         -3.305603439761749
  13 H     1.0000    0     1.008          5.704686355820136          2.424726499695697         -0.409598139527431
  14 H     1.0000    0     1.008          6.854849269969966         -0.883579248437560          0.367117096036882
  15 C     4.0000    0    12.011         11.760427135538821          1.600257884727194          3.176327274940197
  16 C     4.0000    0    12.011         10.043743223700739          3.386049081282777          5.175449654754149
  17 C     4.0000    0    12.011          7.045352561530567          2.429394123246483          5.573596053910018
  18 H     1.0000    0     1.008          6.007344893428963          2.361893105742816          3.660512904973500
  19 H     1.0000    0     1.008          6.022972928556491          3.835312572361215          6.904208916587989
  20 H     1.0000    0     1.008          7.048810760355643          0.439096764477942          6.484349564153365
  21 H     1.0000    0     1.008         11.031862121866823          3.369457285826948          7.117729072459751
  22 H     1.0000    0     1.008         10.002755063855988          5.426821025088355          4.408844454006315
  23 H     1.0000    0     1.008         13.776651536864762          1.442881492294233          4.017822322375330
  24 H     1.0000    0     1.008         10.872747181390652         -0.401340036322195          3.159546506870976
  25 C     4.0000    0    12.011          0.670437037792582          1.182420539255866         -3.407554164686801
  26 C     4.0000    0    12.011         -1.278305243291031         -0.400470762300592         -2.599469475299395
  27 C     4.0000    0    12.011         -3.312122994923778          0.889985420031553         -1.375342680267887
  28 C     4.0000    0    12.011         -2.967625920709934          3.505026238674459         -1.216000972655647
  29 S     6.0000    0    32.060         -0.203636888191354          4.074910948881091         -2.578928152223671
  30 H     1.0000    0     1.008         -1.246916892206599         -2.535804601847588         -2.905435033642585
  31 C     4.0000    0    12.011         -5.532588996803927         -0.998890337129434         -0.469294588098004
  32 C     4.0000    0    12.011         -8.594644532425907         -0.661649811269848         -1.272749448457302
  33 C     4.0000    0    12.011        -10.579990808723574          0.933108970407636          0.595925136332067
  34 H     1.0000    0     1.008         -9.488012562237177          2.547369725787186          1.565127875897598
  35 H     1.0000    0     1.008        -12.173937008163470          1.776928380987492         -0.634381063157364
  36 H     1.0000    0     1.008         -8.610083594940042          0.340112909583147         -3.219242955441548
  37 H     1.0000    0     1.008         -9.401822153269029         -2.674661678168122         -1.536422935923334
  38 H     1.0000    0     1.008         -5.539184141011313         -0.997170686347566          1.745766797039131
  39 H     1.0000    0     1.008         -5.030450968498371         -3.065457042663037         -1.081131218477687
  40 C     4.0000    0    12.011        -11.768571855176022         -0.942179655850458          2.739706051697691
  41 C     4.0000    0    12.011        -14.296061662034358         -2.716745879170548          1.897776367251756
  42 C     4.0000    0    12.011        -13.631085932768809         -5.676888484390154          0.923584750692673
  43 H     1.0000    0     1.008        -12.241249053053744         -6.604838502452185          2.334322001448905
  44 H     1.0000    0     1.008        -12.735979354914328         -5.616209378229942         -1.067978724585595
  45 H     1.0000    0     1.008        -15.484208071476004         -6.837822837503335          0.857368746960072
  46 H     1.0000    0     1.008        -15.328985966835715         -1.696671712079856          0.274898460701524
  47 H     1.0000    0     1.008        -15.615298373386123         -2.860251681780528          3.624286854986229
  48 H     1.0000    0     1.008        -10.211380829040893         -2.328992973751247          3.408026596220281
  49 H     1.0000    0     1.008        -12.390424034065488          0.270022967276008          4.452005798905077
  50 H     1.0000    0     1.008          6.719507084258526         -4.216734895231880         -8.687808030828222
  51 H     1.0000    0     1.008         -4.212464114169219          4.842990136013384         -0.395803138749806

--------------------------------
INTERNAL COORDINATES (ANGSTROEM)
--------------------------------
 C      0   0   0   0.000000     0.000     0.000
 C      1   0   0   1.395675     0.000     0.000
 C      2   1   0   1.429772   114.102     0.000
 C      3   2   1   1.398331   113.693     0.000
 S      1   2   3   1.658048   105.480     0.000
 H      2   1   3   1.147026   123.325   157.106
 C      3   2   1   1.607325   114.972   180.683
 C      7   3   2   1.713164   108.014    47.278
 C      8   7   3   1.683304   125.591   183.940
 H      9   8   7   1.158701   106.894   265.818
 H      9   8   7   1.161622   106.246   150.874
 H      8   7   3   1.154886   107.226   306.058
 H      8   7   3   1.157377   104.747    61.245
 H      7   3   2   1.157568   110.602   165.622
 H      7   3   2   1.157180   110.937   288.228
 C      9   8   7   1.624585   118.166    29.350
 C     16   9   8   1.684459   115.830   267.456
 C     17  16   9   1.678756   114.794    96.912
 H     18  17  16   1.152332   110.464   302.635
 H     18  17  16   1.158451   108.906   182.531
 H     18  17  16   1.158254   108.962    63.287
 H     17  16   9   1.153206   108.116   217.944
 H     17  16   9   1.153814   108.326   336.174
 H     16   9   8   1.159133   108.975   146.556
 H     16   9   8   1.158723   109.115    28.744
 C      4   3   2   1.635330   125.944   156.381
 C     26   4   3   1.395678   123.737   263.643
 C     27  26   4   1.429776   114.101   180.001
 C     28  27  26   1.398321   113.694     0.000
 S     26   4   3   1.658034   130.783    83.645
 H     27  26   4   1.141632   122.672   359.630
 C     28  27  26   1.615442   112.735   179.934
 C     32  28  27   1.684701   123.997   234.489
 C     33  32  28   1.671463   120.579   267.115
 H     34  33  32   1.151810   108.817    33.387
 H     34  33  32   1.155298   108.702   152.337
 H     33  32  28   1.158476   106.239    28.691
 H     33  32  28   1.156137   106.750   143.950
 H     32  28  27   1.172166   107.366   112.744
 H     32  28  27   1.171047   109.312   358.029
 C     34  33  32   1.633198   110.257   273.222
 C     41  34  33   1.693874   117.274   276.740
 C     42  41  34   1.686215   115.508    95.321
 H     43  42  41   1.157304   109.243    47.272
 H     43  42  41   1.155889   109.783   286.761
 H     43  42  41   1.157703   108.993   166.796
 H     42  41  34   1.152248   108.113   334.444
 H     42  41  34   1.152321   107.840   216.092
 H     41  34  33   1.158735   108.842    38.173
 H     41  34  33   1.157932   108.445   155.798
 H      1   2   3   1.060003   127.260   180.000
 H     29  28  27   1.060006   127.206   180.001

---------------------------
INTERNAL COORDINATES (A.U.)
---------------------------
 C      0   0   0   0.000000     0.000     0.000
 C      1   0   0   2.637444     0.000     0.000
 C      2   1   0   2.701878   114.102     0.000
 C      3   2   1   2.642463   113.693     0.000
 S      1   2   3   3.133256   105.480     0.000
 H      2   1   3   2.167564   123.325   157.106
 C      3   2   1   3.037403   114.972   180.683
 C      7   3   2   3.237410   108.014    47.278
 C      8   7   3   3.180983   125.591   183.940
 H      9   8   7   2.189627   106.894   265.818
 H      9   8   7   2.195148   106.246   150.874
 H      8   7   3   2.182418   107.226   306.058
 H      8   7   3   2.187126   104.747    61.245
 H      7   3   2   2.187487   110.602   165.622
 H      7   3   2   2.186754   110.937   288.228
 C      9   8   7   3.070020   118.166    29.350
 C     16   9   8   3.183166   115.830   267.456
 C     17  16   9   3.172390   114.794    96.912
 H     18  17  16   2.177591   110.464   302.635
 H     18  17  16   2.189154   108.906   182.531
 H     18  17  16   2.188782   108.962    63.287
 H     17  16   9   2.179244   108.116   217.944
 H     17  16   9   2.180393   108.326   336.174
 H     16   9   8   2.190443   108.975   146.556
 H     16   9   8   2.189669   109.115    28.744
 C      4   3   2   3.090326   125.944   156.381
 C     26   4   3   2.637450   123.737   263.643
 C     27  26   4   2.701884   114.101   180.001
 C     28  27  26   2.642443   113.694     0.000
 S     26   4   3   3.133229   130.783    83.645
 H     27  26   4   2.157371   122.672   359.630
 C     28  27  26   3.052744   112.735   179.934
 C     32  28  27   3.183623   123.997   234.489
 C     33  32  28   3.158607   120.579   267.115
 H     34  33  32   2.176605   108.817    33.387
 H     34  33  32   2.183197   108.702   152.337
 H     33  32  28   2.189202   106.239    28.691
 H     33  32  28   2.184783   106.750   143.950
 H     32  28  27   2.215072   107.366   112.744
 H     32  28  27   2.212958   109.312   358.029
 C     34  33  32   3.086297   110.257   273.222
 C     41  34  33   3.200959   117.274   276.740
 C     42  41  34   3.186485   115.508    95.321
 H     43  42  41   2.186988   109.243    47.272
 H     43  42  41   2.184313   109.783   286.761
 H     43  42  41   2.187742   108.993   166.796
 H     42  41  34   2.177433   108.113   334.444
 H     42  41  34   2.177572   107.840   216.092
 H     41  34  33   2.189691   108.842    38.173
 H     41  34  33   2.188174   108.445   155.798
 H      1   2   3   2.003115   127.260   180.000
 H     29  28  27   2.003121   127.206   180.001

----------------------------
SLATER BASIS SET DIM= 118
----------------------------
  0 C     2 shells
 l=0 nsto= 1
    2       1.625000000000        1.000000000000
 l=1 nsto= 1
    2       1.625000000000        1.000000000000
  1 C     2 shells
 l=0 nsto= 1
    2       1.625000000000        1.000000000000
 l=1 nsto= 1
    2       1.625000000000        1.000000000000
  2 C     2 shells
 l=0 nsto= 1
    2       1.625000000000        1.000000000000
 l=1 nsto= 1
    2       1.625000000000        1.000000000000
  3 C     2 shells
 l=0 nsto= 1
    2       1.625000000000        1.000000000000
 l=1 nsto= 1
    2       1.625000000000        1.000000000000
  4 S     2 shells
 l=0 nsto= 1
    3       1.925000000000        1.000000000000
 l=1 nsto= 1
    3       1.925000000000        1.000000000000
  5 H     1 shells
 l=0 nsto= 1
    1       1.200000000000        1.000000000000
  6 C     2 shells
 l=0 nsto= 1
    2       1.625000000000        1.000000000000
 l=1 nsto= 1
    2       1.625000000000        1.000000000000
  7 C     2 shells
 l=0 nsto= 1
    2       1.625000000000        1.000000000000
 l=1 nsto= 1
    2       1.625000000000        1.000000000000
  8 C     2 shells
 l=0 nsto= 1
    2       1.625000000000        1.000000000000
 l=1 nsto= 1
    2       1.625000000000        1.000000000000
  9 H     1 shells
 l=0 nsto= 1
    1       1.200000000000        1.000000000000
 10 H     1 shells
 l=0 nsto= 1
    1       1.200000000000        1.000000000000
 11 H     1 shells
 l=0 nsto= 1
    1       1.200000000000        1.000000000000
 12 H     1 shells
 l=0 nsto= 1
    1       1.200000000000        1.000000000000
 13 H     1 shells
 l=0 nsto= 1
    1       1.200000000000        1.000000000000
 14 H     1 shells
 l=0 nsto= 1
    1       1.200000000000        1.000000000000
 15 C     2 shells
 l=0 nsto= 1
    2       1.625000000000        1.000000000000
 l=1 nsto= 1
    2       1.625000000000        1.000000000000
 16 C     2 shells
 l=0 nsto= 1
    2       1.625000000000        1.000000000000
 l=1 nsto= 1
    2       1.625000000000        1.000000000000
 17 C     2 shells
 l=0 nsto= 1
    2       1.625000000000        1.000000000000
 l=1 nsto= 1
    2       1.625000000000        1.000000000000
 18 H     1 shells
 l=0 nsto= 1
    1       1.200000000000        1.000000000000
 19 H     1 shells
 l=0 nsto= 1
    1       1.200000000000        1.000000000000
 20 H     1 shells
 l=0 nsto= 1
    1       1.200000000000        1.000000000000
 21 H     1 shells
 l=0 nsto= 1
    1       1.200000000000        1.000000000000
 22 H     1 shells
 l=0 nsto= 1
    1       1.200000000000        1.000000000000
 23 H     1 shells
 l=0 nsto= 1
    1       1.200000000000        1.000000000000
 24 H     1 shells
 l=0 nsto= 1
    1       1.200000000000        1.000000000000
 25 C     2 shells
 l=0 nsto= 1
    2       1.625000000000        1.000000000000
 l=1 nsto= 1
    2       1.625000000000        1.000000000000
 26 C     2 shells
 l=0 nsto= 1
    2       1.625000000000        1.000000000000
 l=1 nsto= 1
    2       1.625000000000        1.000000000000
 27 C     2 shells
 l=0 nsto= 1
    2       1.625000000000        1.000000000000
 l=1 nsto= 1
    2       1.625000000000        1.000000000000
 28 C     2 shells
 l=0 nsto= 1
    2       1.625000000000        1.000000000000
 l=1 nsto= 1
    2       1.625000000000        1.000000000000
 29 S     2 shells
 l=0 nsto= 1
    3       1.925000000000        1.000000000000
 l=1 nsto= 1
    3       1.925000000000        1.000000000000
 30 H     1 shells
 l=0 nsto= 1
    1       1.200000000000        1.000000000000
 31 C     2 shells
 l=0 nsto= 1
    2       1.625000000000        1.000000000000
 l=1 nsto= 1
    2       1.625000000000        1.000000000000
 32 C     2 shells
 l=0 nsto= 1
    2       1.625000000000        1.000000000000
 l=1 nsto= 1
    2       1.625000000000        1.000000000000
 33 C     2 shells
 l=0 nsto= 1
    2       1.625000000000        1.000000000000
 l=1 nsto= 1
    2       1.625000000000        1.000000000000
 34 H     1 shells
 l=0 nsto= 1
    1       1.200000000000        1.000000000000
 35 H     1 shells
 l=0 nsto= 1
    1       1.200000000000        1.000000000000
 36 H     1 shells
 l=0 nsto= 1
    1       1.200000000000        1.000000000000
 37 H     1 shells
 l=0 nsto= 1
    1       1.200000000000        1.000000000000
 38 H     1 shells
 l=0 nsto= 1
    1       1.200000000000        1.000000000000
 39 H     1 shells
 l=0 nsto= 1
    1       1.200000000000        1.000000000000
 40 C     2 shells
 l=0 nsto= 1
    2       1.625000000000        1.000000000000
 l=1 nsto= 1
    2       1.625000000000        1.000000000000
 41 C     2 shells
 l=0 nsto= 1
    2       1.625000000000        1.000000000000
 l=1 nsto= 1
    2       1.625000000000        1.000000000000
 42 C     2 shells
 l=0 nsto= 1
    2       1.625000000000        1.000000000000
 l=1 nsto= 1
    2       1.625000000000        1.000000000000
 43 H     1 shells
 l=0 nsto= 1
    1       1.200000000000        1.000000000000
 44 H     1 shells
 l=0 nsto= 1
    1       1.200000000000        1.000000000000
 45 H     1 shells
 l=0 nsto= 1
    1       1.200000000000        1.000000000000
 46 H     1 shells
 l=0 nsto= 1
    1       1.200000000000        1.000000000000
 47 H     1 shells
 l=0 nsto= 1
    1       1.200000000000        1.000000000000
 48 H     1 shells
 l=0 nsto= 1
    1       1.200000000000        1.000000000000
 49 H     1 shells
 l=0 nsto= 1
    1       1.200000000000        1.000000000000
 50 H     1 shells
 l=0 nsto= 1
    1       1.200000000000        1.000000000000
 51 H     1 shells
 l=0 nsto= 1
    1       1.200000000000        1.000000000000
------------------------------------------------------------------------------
                           ORCA NDO INTEGRAL CALCULATION
------------------------------------------------------------------------------

--------------
NDO PARAMETERS
--------------

Gamma integral treatment              ... Mataga-Nishimoto
Nuclear repulsuion treatment          ... Direct (ZA*ZB/RAB)
Interaction factors:
s-s (sigma) =    1.0000
s-p (sigma) =    1.0000
s-d (sigma) =    1.0000
p-p (sigma) =    1.2670  p-p(pi) =    0.5850
p-d (sigma) =    1.0000  p-d(pi) =    1.0000
d-d (sigma) =    1.0000  d-d(pi) =    1.0000 d-d (delta) =    1.0000

fGamma parameter for Mataga-Nishimoto gamma integrals:    1.2000

--------------------------
Parameters for Element H :
--------------------------
 One-electron parameters (in eV)
  U(s)  =   -13.060000 Beta(s) =    12.000000 Neff(s) =     1.000000
 One-center electron repulsion parameters (in eV)
  G(s,s)=    12.850000
--------------------------
Parameters for Element C :
--------------------------
 One-electron parameters (in eV)
  U(s)  =   -50.870766 Beta(s) =    17.000000 Neff(s) =     2.000000
  U(p)  =   -41.599980 Beta(p) =    17.000000 Neff(p) =     2.000000 
 One-center electron repulsion parameters (in eV)
  G(s,s)=    11.110000
  G(s,p)=    11.110000 G(p,p)  =    11.110000
 Slater-Condon parameters (in eV)
 F2(p,p)=     4.5098 G1(s,p)=    6.8977
--------------------------
Parameters for Element S :
--------------------------
 One-electron parameters (in eV)
  U(s)  =   -69.509597 Beta(s) =    15.000000 Neff(s) =     2.000000
  U(p)  =   -60.725746 Beta(p) =    15.000000 Neff(p) =     4.000000 
 One-center electron repulsion parameters (in eV)
  G(s,s)=    10.090000
  G(s,p)=    10.090000 G(p,p)  =    10.090000
 Slater-Condon parameters (in eV)
 F2(p,p)=     4.5377 G1(s,p)=    3.0756

 Number of atoms                    ....   52
 Number of basis functions          ....  118

 Overlap integrals                  .... done
 One electron matrix                .... done
 Nuclear repulsion                  .... done
 Integral list                      .... done
 Electron-electron repulsion        .... done
-------------------------------------------------------------------------------
                                 ORCA SCF
-------------------------------------------------------------------------------

------------
SCF SETTINGS
------------
Hamiltonian:
 ZDO-Hamiltonian        Method          .... INDO


General Settings:
 Integral files         IntName         .... /Users/mattyjones/GoogleDrive/Boise/Code/MorphCT/tests/output_EZ/donor_polymer/chromophores/input_orca/pair/00018-00019
 Hartree-Fock type      HFTyp           .... RHF
 Total Charge           Charge          ....    0
 Multiplicity           Mult            ....    1
 Number of Electrons    NEL             ....  122
 Basis Dimension        Dim             ....  118
 Nuclear Repulsion      ENuc            ....    848.5841158479 Eh

Convergence Acceleration:
 DIIS                   CNVDIIS         .... on
   Start iteration      DIISMaxIt       ....    12
   Startup error        DIISStart       ....  0.200000
   # of expansion vecs  DIISMaxEq       ....     5
   Bias factor          DIISBfac        ....   1.050
   Max. coefficient     DIISMaxC        ....  10.000
 Newton-Raphson         CNVNR           .... off
 SOSCF                  CNVSOSCF        .... on
   Start iteration      SOSCFMaxIt      ....   150
   Startup grad/error   SOSCFStart      ....  0.003300
 Level Shifting         CNVShift        .... on
   Level shift para.    LevelShift      ....    0.2500
   Turn off err/grad.   ShiftErr        ....    0.0010
 Zerner damping         CNVZerner       .... off
 Static damping         CNVDamp         .... on
   Fraction old density DampFac         ....    0.7000
   Max. Damping (<1)    DampMax         ....    0.9800
   Min. Damping (>=0)   DampMin         ....    0.0000
   Turn off err/grad.   DampErr         ....    0.1000
 Fernandez-Rico         CNVRico         .... off

SCF Procedure:
 Maximum # iterations   MaxIter         ....   125
 SCF integral mode      SCFMode         .... Conventional
 Integral Buffer length BufferLength    .... 1048576
 Integral index format  IndFormat       ....     0
 Integral value format  ValFormat       ....     0
 Integral Storage       Thresh          ....  1.000e-08 Eh

Convergence Tolerance:
 Convergence Check Mode ConvCheckMode   .... Total+1el-Energy
 Energy Change          TolE            ....  1.000e-06 Eh
 1-El. energy change                    ....  1.000e-03 Eh
 Orbital Gradient       TolG            ....  5.000e-05
 Orbital Rotation angle TolX            ....  5.000e-05
 DIIS Error             TolErr          ....  1.000e-06


Diagonalization of the overlap matrix:
Smallest eigenvalue                        ... 1.687e-01
Time for diagonalization                   ...    0.003 sec
Threshold for overlap eigenvalues          ... 1.000e-08
Number of eigenvalues below threshold      ... 0
Time for construction of square roots      ...    0.001 sec
Total time needed                          ...    0.004 sec

-------------------------------
INITIAL GUESS: EXTENDED HUECKEL
-------------------------------
EHT matrix was read from disk
EHT matrix was diagonalized
Initial density was built
                      ------------------
                      INITIAL GUESS DONE
                      ------------------

 InCore treatment chosen:
   Memory dedicated               ...    1024 MB
   Memory needed                  ...      0 MB
   Number of tiny    integrals    ...       0
   Number of small   integrals    ...       0
   Number of regular integrals    ...    7153

--------------
SCF ITERATIONS
--------------
ITER       Energy         Delta-E        Max-DP      RMS-DP      [F,P]     Damp
  0     -2.9103028410   0.000000000000 0.04163847  0.00144931  0.0959995 0.7000
  1     -2.9509809937  -0.040678152673 0.04015458  0.00136865  0.0655683 0.7000
                               ***Turning on DIIS***
  2     -2.9812265138  -0.030245520117 0.10454426  0.00352673  0.0404178 0.0000
  3     -3.0626218935  -0.081395379670 0.01645313  0.00074605  0.0196638 0.0000
  4     -3.0427860924   0.019835801089 0.01310061  0.00051723  0.0072244 0.0000
  5     -3.0609979885  -0.018211896067 0.00898332  0.00034545  0.0042436 0.0000
  6     -3.0635471893  -0.002549200815 0.00673781  0.00024763  0.0024365 0.0000
                      *** Initiating the SOSCF procedure ***
                           *** Shutting down DIIS ***
                      *** Re-Reading the Fockian *** 
                      *** Removing any level shift *** 
ITER      Energy       Delta-E        Grad      Rot      Max-DP    RMS-DP
  7     -3.06053647   0.0030107211  0.002734  0.002734  0.004024  0.000141
  8     -3.05964642   0.0008900435  0.000753  0.002112  0.002026  0.000069
  9     -3.05966337  -0.0000169423  0.000334  0.002063  0.002289  0.000075
 10     -3.05966972  -0.0000063531  0.000030  0.000091  0.000147  0.000005
                 **** Energy Check signals convergence ****
              ***Rediagonalizing the Fockian in SOSCF/NRSCF***

               *****************************************************
               *                     SUCCESS                       *
               *           SCF CONVERGED AFTER  11 CYCLES          *
               *****************************************************


----------------
TOTAL SCF ENERGY
----------------

Total Energy       :           -3.05966978 Eh             -83.25785 eV

Components:
Nuclear Repulsion  :          848.58411585 Eh           23091.14772 eV
Electronic Energy  :         -851.64378563 Eh          -23174.40557 eV

One Electron Energy:        -1614.17238054 Eh          -43923.86352 eV
Two Electron Energy:          762.52859491 Eh           20749.45795 eV


---------------
SCF CONVERGENCE
---------------

  Last Energy change         ...   -6.4216e-08  Tolerance :   1.0000e-06
  Last MAX-Density change    ...    6.4550e-05  Tolerance :   1.0000e-05
  Last RMS-Density change    ...    1.6657e-06  Tolerance :   1.0000e-06
  Last Orbital Gradient      ...    9.4828e-06  Tolerance :   5.0000e-05
  Last Orbital Rotation      ...    3.2153e-05  Tolerance :   5.0000e-05

             **** THE GBW FILE WAS UPDATED (/Users/mattyjones/GoogleDrive/Boise/Code/MorphCT/tests/output_EZ/donor_polymer/chromophores/input_orca/pair/00018-00019.gbw) ****
             **** DENSITY FILE WAS UPDATED (/Users/mattyjones/GoogleDrive/Boise/Code/MorphCT/tests/output_EZ/donor_polymer/chromophores/input_orca/pair/00018-00019.scfp.tmp) ****
             **** ENERGY FILE WAS UPDATED (/Users/mattyjones/GoogleDrive/Boise/Code/MorphCT/tests/output_EZ/donor_polymer/chromophores/input_orca/pair/00018-00019.en.tmp) ****
----------------
ORBITAL ENERGIES
----------------

  NO   OCC          E(Eh)            E(eV) 
   0   2.0000      -1.577693       -42.9312 
   1   2.0000      -1.544931       -42.0397 
   2   2.0000      -1.412695       -38.4414 
   3   2.0000      -1.407871       -38.3101 
   4   2.0000      -1.285792       -34.9882 
   5   2.0000      -1.281879       -34.8817 
   6   2.0000      -1.201753       -32.7014 
   7   2.0000      -1.185031       -32.2463 
   8   2.0000      -1.159672       -31.5563 
   9   2.0000      -1.072761       -29.1913 
  10   2.0000      -1.053411       -28.6648 
  11   2.0000      -1.033459       -28.1219 
  12   2.0000      -0.957493       -26.0547 
  13   2.0000      -0.946824       -25.7644 
  14   2.0000      -0.914400       -24.8821 
  15   2.0000      -0.895368       -24.3642 
  16   2.0000      -0.868620       -23.6364 
  17   2.0000      -0.855003       -23.2658 
  18   2.0000      -0.839283       -22.8380 
  19   2.0000      -0.793221       -21.5846 
  20   2.0000      -0.774438       -21.0735 
  21   2.0000      -0.746975       -20.3262 
  22   2.0000      -0.731937       -19.9170 
  23   2.0000      -0.710546       -19.3349 
  24   2.0000      -0.689789       -18.7701 
  25   2.0000      -0.682085       -18.5605 
  26   2.0000      -0.674444       -18.3526 
  27   2.0000      -0.673850       -18.3364 
  28   2.0000      -0.650751       -17.7078 
  29   2.0000      -0.634498       -17.2656 
  30   2.0000      -0.610534       -16.6135 
  31   2.0000      -0.609698       -16.5907 
  32   2.0000      -0.600563       -16.3422 
  33   2.0000      -0.593645       -16.1539 
  34   2.0000      -0.578692       -15.7470 
  35   2.0000      -0.568358       -15.4658 
  36   2.0000      -0.562903       -15.3174 
  37   2.0000      -0.559249       -15.2180 
  38   2.0000      -0.549608       -14.9556 
  39   2.0000      -0.533986       -14.5305 
  40   2.0000      -0.525738       -14.3060 
  41   2.0000      -0.522790       -14.2258 
  42   2.0000      -0.519707       -14.1420 
  43   2.0000      -0.509022       -13.8512 
  44   2.0000      -0.502433       -13.6719 
  45   2.0000      -0.495796       -13.4913 
  46   2.0000      -0.490152       -13.3377 
  47   2.0000      -0.484765       -13.1911 
  48   2.0000      -0.482279       -13.1235 
  49   2.0000      -0.479054       -13.0357 
  50   2.0000      -0.475917       -12.9504 
  51   2.0000      -0.471729       -12.8364 
  52   2.0000      -0.466618       -12.6973 
  53   2.0000      -0.460814       -12.5394 
  54   2.0000      -0.456031       -12.4092 
  55   2.0000      -0.439905       -11.9704 
  56   2.0000      -0.436643       -11.8817 
  57   2.0000      -0.359772        -9.7899 
  58   2.0000      -0.352880        -9.6023 
  59   2.0000      -0.312589        -8.5060 
  60   2.0000      -0.289290        -7.8720 
  61   0.0000      -0.003202        -0.0871 
  62   0.0000       0.012367         0.3365 
  63   0.0000       0.041004         1.1158 
  64   0.0000       0.067855         1.8464 
  65   0.0000       0.070727         1.9246 
  66   0.0000       0.078344         2.1318 
  67   0.0000       0.080272         2.1843 
  68   0.0000       0.086674         2.3585 
  69   0.0000       0.088124         2.3980 
  70   0.0000       0.105490         2.8705 
  71   0.0000       0.106315         2.8930 
  72   0.0000       0.120371         3.2755 
  73   0.0000       0.122792         3.3413 
  74   0.0000       0.132814         3.6141 
  75   0.0000       0.140985         3.8364 
  76   0.0000       0.145204         3.9512 
  77   0.0000       0.157118         4.2754 
  78   0.0000       0.160905         4.3784 
  79   0.0000       0.165109         4.4928 
  80   0.0000       0.166052         4.5185 
  81   0.0000       0.169659         4.6166 
  82   0.0000       0.183273         4.9871 
  83   0.0000       0.204062         5.5528 
  84   0.0000       0.207096         5.6354 
  85   0.0000       0.230956         6.2846 
  86   0.0000       0.232373         6.3232 
  87   0.0000       0.233812         6.3624 
  88   0.0000       0.235305         6.4030 
  89   0.0000       0.235992         6.4217 
  90   0.0000       0.236654         6.4397 
  91   0.0000       0.238412         6.4875 
  92   0.0000       0.239603         6.5199 
  93   0.0000       0.241170         6.5626 
  94   0.0000       0.241700         6.5770 
  95   0.0000       0.243682         6.6309 
  96   0.0000       0.244246         6.6463 
  97   0.0000       0.245164         6.6713 
  98   0.0000       0.245736         6.6868 
  99   0.0000       0.246154         6.6982 
 100   0.0000       0.251175         6.8348 
 101   0.0000       0.259786         7.0691 
 102   0.0000       0.259969         7.0741 
 103   0.0000       0.272943         7.4272 
 104   0.0000       0.282918         7.6986 
 105   0.0000       0.285143         7.7591 
 106   0.0000       0.290441         7.9033 
 107   0.0000       0.308184         8.3861 
 108   0.0000       0.311365         8.4727 
 109   0.0000       0.327076         8.9002 
 110   0.0000       0.336472         9.1559 
 111   0.0000       0.338081         9.1997 
 112   0.0000       0.348776         9.4907 
 113   0.0000       0.353574         9.6212 
 114   0.0000       0.401650        10.9295 
 115   0.0000       0.422210        11.4889 
 116   0.0000       0.423905        11.5350 
 117   0.0000       0.461469        12.5572 
-------
TIMINGS
-------

Total SCF time: 0 days 0 hours 0 min 0 sec 

Total time                  ....       0.161 sec
Sum of individual times     ....       0.128 sec  ( 79.5%)

Fock matrix formation       ....       0.057 sec  ( 35.3%)
Diagonalization             ....       0.021 sec  ( 13.1%)
Density matrix formation    ....       0.006 sec  (  3.6%)
Population analysis         ....       0.000 sec  (  0.0%)
Initial guess               ....       0.003 sec  (  1.7%)
Orbital Transformation      ....       0.000 sec  (  0.0%)
Orbital Orthonormalization  ....       0.000 sec  (  0.0%)
DIIS solution               ....       0.035 sec  ( 21.8%)
SOSCF solution              ....       0.006 sec  (  3.9%)

-------------------------   --------------------
FINAL SINGLE POINT ENERGY        -3.059669784252
-------------------------   --------------------


                            ***************************************
                            *     ORCA property calculations      *
                            ***************************************

                                    ---------------------
                                    Active property flags
                                    ---------------------
   (+) Dipole Moment


------------------------------------------------------------------------------
                       ORCA ELECTRIC PROPERTIES CALCULATION
------------------------------------------------------------------------------

Dipole Moment Calculation                       ... on
Quadrupole Moment Calculation                   ... off
Polarizability Calculation                      ... off
GBWName                                         ... /Users/mattyjones/GoogleDrive/Boise/Code/MorphCT/tests/output_EZ/donor_polymer/chromophores/input_orca/pair/00018-00019.gbw
Electron density file                           ... /Users/mattyjones/GoogleDrive/Boise/Code/MorphCT/tests/output_EZ/donor_polymer/chromophores/input_orca/pair/00018-00019.scfp.tmp

-------------
DIPOLE MOMENT
-------------
                                X             Y             Z
Electronic contribution:     48.86064      34.97560    -145.17973
Nuclear contribution   :    -26.66588     -18.49413      77.88327
                        -----------------------------------------
Total Dipole Moment    :     22.19476      16.48147     -67.29646
                        -----------------------------------------
Magnitude (a.u.)       :     72.75342
Magnitude (Debye)      :    184.92449


Timings for individual modules:

Sum of individual times         ...        0.248 sec (=   0.004 min)
STO integral calculation        ...        0.050 sec (=   0.001 min)  20.3 %
SCF iterations                  ...        0.198 sec (=   0.003 min)  79.7 %
                             ****ORCA TERMINATED NORMALLY****
TOTAL RUN TIME: 0 days 0 hours 0 minutes 0 seconds 544 msec

