
                                 *****************
                                 * O   R   C   A *
                                 *****************

           --- An Ab Initio, DFT and Semiempirical electronic structure package ---

                  #######################################################
                  #                        -***-                        #
                  #  Department of molecular theory and spectroscopy    #
                  #              Directorship: Frank Neese              #
                  # Max Planck Institute for Chemical Energy Conversion #
                  #                  D-45470 Muelheim/Ruhr              #
                  #                       Germany                       #
                  #                                                     #
                  #                  All rights reserved                #
                  #                        -***-                        #
                  #######################################################


                         Program Version 3.0.3 - RELEASE   -


 With contributions from (in alphabetic order):
   Ute Becker             : Parallelization
   Dmytro Bykov           : SCF Hessian
   Dmitry Ganyushin       : Spin-Orbit,Spin-Spin,Magnetic field MRCI
   Andreas Hansen         : Spin unrestricted coupled pair/coupled cluster methods
   Dimitrios Liakos       : Extrapolation schemes; parallel MDCI
   Robert Izsak           : Overlap fitted RIJCOSX, COSX-SCS-MP3
   Christian Kollmar      : KDIIS, OOCD, Brueckner-CCSD(T), CCSD density
   Simone Kossmann        : Meta GGA functionals, TD-DFT gradient, OOMP2, MP2 Hessian
   Taras Petrenko         : DFT Hessian,TD-DFT gradient, ASA and ECA modules, normal mode analysis, Resonance Raman, ABS, FL, XAS/XES, NRVS
   Christoph Reimann      : Effective Core Potentials
   Michael Roemelt        : Restricted open shell CIS
   Christoph Riplinger    : Improved optimizer, TS searches, QM/MM, DLPNO-CCSD
   Barbara Sandhoefer     : DKH picture change effects
   Igor Schapiro          : Molecular dynamics
   Kantharuban Sivalingam : CASSCF convergence, NEVPT2
   Boris Wezisla          : Elementary symmetry handling
   Frank Wennmohs         : Technical directorship


 We gratefully acknowledge several colleagues who have allowed us to
 interface, adapt or use parts of their codes:
   Stefan Grimme, W. Hujo, H. Kruse, T. Risthaus : VdW corrections, initial TS optimization,
                                                   DFT functionals, gCP
   Ed Valeev                                     : LibInt (2-el integral package), F12 methods
   Garnet Chan, S. Sharma, R. Olivares           : DMRG
   Ulf Ekstrom                                   : XCFun DFT Library
   Mihaly Kallay                                 : mrcc  (arbitrary order and MRCC methods)
   Andreas Klamt, Michael Diedenhofen            : otool_cosmo (COSMO solvation model)
   Frank Weinhold                                : gennbo (NPA and NBO analysis)
   Christopher J. Cramer and Donald G. Truhlar   : smd solvation model


 Your calculation uses the libint2 library for the computation of 2-el integrals
 For citations please refer to: http://libint.valeyev.net

 This ORCA versions uses:
   CBLAS   interface :  Fast vector & matrix operations
   LAPACKE interface :  Fast linear algebra routines
   SCALAPACK package :  Parallel linear algebra routines


leaving
================================================================================
                                        WARNINGS
                       Please study these warnings very carefully!
================================================================================
Now building the actual basis set

WARNING: Direct SCF is incompatible with Method<>HF and Method<>DFT
  ===> : conventional SCF is chosen

WARNING: The NDO methods need Guess=HUECKEL or Guess=HCORE or Guess=MOREAD
  ===> : Guess is set to Hueckel

WARNING: The NDO methods need %rel::SOCType==1
  ===> : %rel::SOCType is set to 1

WARNING: The NDO methods cannot have frozencore=1
  ===> : %method FrozenCore=0 end


INFO   : the flag for use of LIBINT has been found!

================================================================================
                                       INPUT FILE
================================================================================
NAME = /Users/mattyjones/GoogleDrive/Boise/Code/MorphCT/tests/output_EZ/donor_polymer/chromophores/input_orca/pair/00013-00019.inp
|  1> # ================================================================
|  2> # Orca input file made by Matty Jones
|  3> # ================================================================
|  4> ! ZINDO/S 
|  5> ! NOPOP
|  6> ! NOMOPRINT
|  7> * xyz 0   1
|  8>  C  23.51530  -2.04650  12.09440
|  9>  C  24.84195  -1.84677  11.70968
| 10>  C  25.80168  -2.39744  12.61520
| 11>  C  25.22997  -3.03520  13.72052
| 12>  S  23.59019  -2.88630  13.52206
| 13>  H  25.31469  -0.85120  11.27990
| 14>  C  27.39532  -2.27246  12.38713
| 15>  C  27.90131  -0.66862  12.12438
| 16>  C  29.52322  -0.24310  11.87324
| 17>  H  30.13044  -1.22040  11.78373
| 18>  H  29.88428  0.32852  12.81213
| 19>  H  27.33683  -0.30394  11.18797
| 20>  H  27.54389  -0.06397  13.04179
| 21>  H  27.98127  -2.63074  13.32262
| 22>  H  27.72311  -2.90797  11.47518
| 23>  C  29.73942  0.69244  10.55513
| 24>  C  30.29006  0.00856  9.11162
| 25>  C  31.09616  -1.45696  9.26400
| 26>  H  31.87066  -1.38051  10.12144
| 27>  H  31.64636  -1.69040  8.27216
| 28>  H  30.33642  -2.29752  9.49489
| 29>  H  29.37528  -0.16039  8.42926
| 30>  H  31.00452  0.76249  8.61065
| 31>  H  28.73695  1.21752  10.30066
| 32>  H  30.50740  1.51925  10.82961
| 33>  C  -23.38181  2.27840  -13.06562
| 34>  C  -24.41304  1.44077  -12.63800
| 35>  C  -25.48929  2.12364  -11.99022
| 36>  C  -25.30699  3.50747  -11.90590
| 37>  S  -23.84435  3.80904  -12.62713
| 38>  H  -24.39643  0.31079  -12.79991
| 39>  C  -26.66431  1.12409  -11.51076
| 40>  C  -28.28468  1.30255  -11.93593
| 41>  C  -29.33528  2.14647  -10.94707
| 42>  H  -28.75743  3.00070  -10.43419
| 43>  H  -30.17876  2.59300  -11.59812
| 44>  H  -28.29285  1.83267  -12.96597
| 45>  H  -28.71182  0.23732  -12.07546
| 46>  H  -26.66780  1.12501  -10.33860
| 47>  H  -26.39859  0.03052  -11.83453
| 48>  C  -29.96425  1.15411  -9.81264
| 49>  C  -31.30174  0.21504  -10.25816
| 50>  C  -30.94985  -1.35139  -10.77368
| 51>  H  -30.21438  -1.84245  -10.02715
| 52>  H  -30.47618  -1.31928  -11.82757
| 53>  H  -31.93048  -1.96573  -10.80872
| 54>  H  -31.84834  0.75484  -11.11695
| 55>  H  -31.99985  0.13911  -9.34453
| 56>  H  -29.14022  0.42023  -9.45897
| 57>  H  -30.29332  1.79557  -8.90652
| 58>  H  22.64365  -1.72837  11.58194
| 59>  H  25.73824  -3.51365  14.51823
| 60>  H  -22.49079  1.99564  -13.56535
| 61>  H  -25.96573  4.21548  -11.47187
| 62> *
| 63> 
| 64>                          ****END OF INPUT****
================================================================================

                       ****************************
                       * Single Point Calculation *
                       ****************************

---------------------------------
CARTESIAN COORDINATES (ANGSTROEM)
---------------------------------
  C     23.515300   -2.046500   12.094400
  C     24.841950   -1.846770   11.709680
  C     25.801680   -2.397440   12.615200
  C     25.229970   -3.035200   13.720520
  S     23.590190   -2.886300   13.522060
  H     25.314690   -0.851200   11.279900
  C     27.395320   -2.272460   12.387130
  C     27.901310   -0.668620   12.124380
  C     29.523220   -0.243100   11.873240
  H     30.130440   -1.220400   11.783730
  H     29.884280    0.328520   12.812130
  H     27.336830   -0.303940   11.187970
  H     27.543890   -0.063970   13.041790
  H     27.981270   -2.630740   13.322620
  H     27.723110   -2.907970   11.475180
  C     29.739420    0.692440   10.555130
  C     30.290060    0.008560    9.111620
  C     31.096160   -1.456960    9.264000
  H     31.870660   -1.380510   10.121440
  H     31.646360   -1.690400    8.272160
  H     30.336420   -2.297520    9.494890
  H     29.375280   -0.160390    8.429260
  H     31.004520    0.762490    8.610650
  H     28.736950    1.217520   10.300660
  H     30.507400    1.519250   10.829610
  C    -23.381810    2.278400  -13.065620
  C    -24.413040    1.440770  -12.638000
  C    -25.489290    2.123640  -11.990220
  C    -25.306990    3.507470  -11.905900
  S    -23.844350    3.809040  -12.627130
  H    -24.396430    0.310790  -12.799910
  C    -26.664310    1.124090  -11.510760
  C    -28.284680    1.302550  -11.935930
  C    -29.335280    2.146470  -10.947070
  H    -28.757430    3.000700  -10.434190
  H    -30.178760    2.593000  -11.598120
  H    -28.292850    1.832670  -12.965970
  H    -28.711820    0.237320  -12.075460
  H    -26.667800    1.125010  -10.338600
  H    -26.398590    0.030520  -11.834530
  C    -29.964250    1.154110   -9.812640
  C    -31.301740    0.215040  -10.258160
  C    -30.949850   -1.351390  -10.773680
  H    -30.214380   -1.842450  -10.027150
  H    -30.476180   -1.319280  -11.827570
  H    -31.930480   -1.965730  -10.808720
  H    -31.848340    0.754840  -11.116950
  H    -31.999850    0.139110   -9.344530
  H    -29.140220    0.420230   -9.458970
  H    -30.293320    1.795570   -8.906520
  H     22.643650   -1.728370   11.581940
  H     25.738240   -3.513650   14.518230
  H    -22.490790    1.995640  -13.565350
  H    -25.965730    4.215480  -11.471870

----------------------------
CARTESIAN COORDINATES (A.U.)
----------------------------
  NO LB      ZA    FRAG    MASS        X           Y           Z
   0 C     4.0000    0    12.011         44.437476956998410         -3.867324533069842         22.855103754097186
   1 C     4.0000    0    12.011         46.944482132565042         -3.489889532341750         22.128088315855003
   2 C     4.0000    0    12.011         48.758108995073286         -4.530505022508166         23.839273124643373
   3 C     4.0000    0    12.011         47.677733667049168         -5.735696761677783         25.928025214989212
   4 S     6.0000    0    32.060         44.578998547167771         -5.454316540336908         25.552990166451199
   5 H     1.0000    0     1.008         47.837831265114971         -1.608534885193769         21.315921818018325
   6 C     4.0000    0    12.011         51.769652151135546         -4.294327050290688         23.408283285279957
   7 C     4.0000    0    12.011         52.725834677638353         -1.263508687662427         22.911757743592148
   8 C     4.0000    0    12.011         55.790800391506572         -0.459392423156256         22.437171922319159
   9 H     1.0000    0     1.008         56.938279894546241         -2.306221773837495         22.268022536071872
  10 H     1.0000    0     1.008         56.473104909420186          0.620812829515810         24.211416892196485
  11 H     1.0000    0     1.008         51.659122069562486         -0.574363361144025         21.142199294526947
  12 H     1.0000    0     1.008         52.050408762852229         -0.120885780786942         24.645411396112841
  13 H     1.0000    0     1.008         52.876937179306701         -4.971378129551994         25.176103186301948
  14 H     1.0000    0     1.008         52.389085480573591         -5.495266905658982         21.684947537450469
  15 C     4.0000    0    12.011         56.199359181660348          1.308521964172431         19.946305007936221
  16 C     4.0000    0    12.011         57.239917980042748          0.016176055706366         17.218466436359556
  17 C     4.0000    0    12.011         58.763226216596671         -2.753255388077907         17.506422904646474
  18 H     1.0000    0     1.008         60.226819107318683         -2.608785825139627         19.126749680915914
  19 H     1.0000    0     1.008         59.802953535480142         -3.194393056780484         15.632116935978020
  20 H     1.0000    0     1.008         57.327525683611341         -4.341683587206754         17.942741771707553
  21 H     1.0000    0     1.008         55.511234307254263         -0.303093174619630         15.928992911617048
  22 H     1.0000    0     1.008         58.590051713684126          1.440897279853615         16.271770335049023
  23 H     1.0000    0     1.008         54.304965424188310          2.300779362571802         19.465426398637280
  24 H     1.0000    0     1.008         57.650631057989195          2.870966428959862         20.464997037174928
  25 C     4.0000    0    12.011        -44.185217415381267          4.305552023526180        -24.690443569884181
  26 C     4.0000    0    12.011        -46.133959696464871          2.722660721969722        -23.882358880496778
  27 C     4.0000    0    12.011        -48.167777448097624          4.013098007040527        -22.658232085465272
  28 C     4.0000    0    12.011        -47.823280373883776          6.628157722944772        -22.498890377853030
  29 S     6.0000    0    32.060        -45.059291341365196          7.198042433151405        -23.861817557421052
  30 H     1.0000    0     1.008        -46.102571345380440          0.587307985161386        -24.188324438839970
  31 C     4.0000    0    12.011        -50.388243449977772          2.124222249879540        -21.752183993295386
  32 C     4.0000    0    12.011        -53.450298985599751          2.461462775739127        -22.555638853654688
  33 C     4.0000    0    12.011        -55.435645261897420          4.056240454677948        -20.686964268865317
  34 H     1.0000    0     1.008        -54.343667015411022          5.670501210057500        -19.717761529299782
  35 H     1.0000    0     1.008        -57.029591461337311          4.900059865257806        -21.917270468354747
  36 H     1.0000    0     1.008        -53.465738048113884          3.463244393853461        -24.502132360638932
  37 H     1.0000    0     1.008        -54.257476606442872          0.448469806102191        -22.819312341120717
  38 H     1.0000    0     1.008        -50.394838594185153          2.125960797922748        -19.537122608158253
  39 H     1.0000    0     1.008        -49.886105421672212          0.057674441607277        -22.364020623675071
  40 C     4.0000    0    12.011        -56.624226308349861          2.180951828419856        -18.543202250761031
  41 C     4.0000    0    12.011        -59.151716115208195          0.406366707838426        -19.385113037945626
  42 C     4.0000    0    12.011        -58.486740385942653         -2.553757000119841        -20.359304654504712
  43 H     1.0000    0     1.008        -57.096903506227584         -3.481725915443210        -18.948567403748481
  44 H     1.0000    0     1.008        -57.591633808088169         -2.493077893959629        -22.350868129782977
  45 H     1.0000    0     1.008        -60.339862524649845         -3.714691353233022        -20.425520658237311
  46 H     1.0000    0     1.008        -60.184640420009558          1.426440874929118        -21.007990944495859
  47 H     1.0000    0     1.008        -60.470952826559959          0.262879802489785        -17.658602550211157
  48 H     1.0000    0     1.008        -55.067035282214732          0.794119613257728        -17.874862808977102
  49 H     1.0000    0     1.008        -57.246078487239330          3.393135554284982        -16.830883606292307
  50 H     1.0000    0     1.008         42.790297172365953         -3.266145958085473         21.886694699507899
  51 H     1.0000    0     1.008         48.638224769137317         -6.639836230452406         27.435478649279535
  52 H     1.0000    0     1.008        -42.501433635534745          3.771213061898607        -25.634796410788653
  53 H     1.0000    0     1.008        -49.068118567343063          7.966102723022359        -21.678692543947189

--------------------------------
INTERNAL COORDINATES (ANGSTROEM)
--------------------------------
 C      0   0   0   0.000000     0.000     0.000
 C      1   0   0   1.395673     0.000     0.000
 C      2   1   0   1.429785   114.101     0.000
 C      3   2   1   1.398328   113.693     0.000
 S      1   2   3   1.658037   105.480     0.000
 H      2   1   3   1.182943   126.902   223.306
 C      3   2   1   1.614721   122.903   180.820
 C      7   3   2   1.702165   112.837    52.416
 C      8   7   3   1.695503   122.936   179.315
 H      9   8   7   1.154055   107.595     7.096
 H      9   8   7   1.156991   107.597   250.378
 H      8   7   3   1.152603   106.138   300.700
 H      8   7   3   1.155418   106.175    56.769
 H      7   3   2   1.160536   111.134   170.536
 H      7   3   2   1.158867   110.357   291.327
 C      9   8   7   1.630764   112.987   129.590
 C     16   9   8   1.689561   120.104   259.813
 C     17  16   9   1.679514   115.601   338.725
 H     18  17  16   1.157972   109.305   313.347
 H     18  17  16   1.157999   109.041   193.974
 H     18  17  16   1.156311   109.699    73.851
 H     17  16   9   1.153682   107.829    99.460
 H     17  16   9   1.153184   107.966   217.414
 H     16   9   8   1.159918   108.811    22.246
 H     16   9   8   1.161356   107.762   138.548
 C      1   2   3  53.395415   133.899   194.768
 C     26   1   2   1.395678   117.127   150.203
 C     27  26   1   1.429771   114.102   111.681
 C     28  27  26   1.398331   113.693     0.000
 S     26   1   2   1.658034   101.255   264.264
 H     27  26   1   1.141642   122.672   291.310
 C     28  27  26   1.615442   112.735   179.934
 C     32  28  27   1.684701   123.997   234.489
 C     33  32  28   1.671468   120.579   267.115
 H     34  33  32   1.151810   108.817    33.386
 H     34  33  32   1.155298   108.703   152.337
 H     33  32  28   1.158480   106.239    28.691
 H     33  32  28   1.156128   106.751   143.950
 H     32  28  27   1.172166   107.366   112.744
 H     32  28  27   1.171038   109.312   358.029
 C     34  33  32   1.633191   110.256   273.221
 C     41  34  33   1.693877   117.274   276.740
 C     42  41  34   1.686206   115.508    95.321
 H     43  42  41   1.157309   109.243    47.273
 H     43  42  41   1.155889   109.783   286.762
 H     43  42  41   1.157703   108.993   166.797
 H     42  41  34   1.152248   108.112   334.444
 H     42  41  34   1.152321   107.840   216.092
 H     41  34  33   1.158744   108.842    38.173
 H     41  34  33   1.157934   108.445   155.798
 H      1   2   3   1.059998   127.260   180.000
 H      4   3   2   1.059997   127.206   180.000
 H     26   1   2   1.060000    57.470    31.511
 H     29  28  27   1.059999   127.206   180.001

---------------------------
INTERNAL COORDINATES (A.U.)
---------------------------
 C      0   0   0   0.000000     0.000     0.000
 C      1   0   0   2.637439     0.000     0.000
 C      2   1   0   2.701902   114.101     0.000
 C      3   2   1   2.642458   113.693     0.000
 S      1   2   3   3.133235   105.480     0.000
 H      2   1   3   2.235438   126.902   223.306
 C      3   2   1   3.051381   122.903   180.820
 C      7   3   2   3.216626   112.837    52.416
 C      8   7   3   3.204036   122.936   179.315
 H      9   8   7   2.180848   107.595     7.096
 H      9   8   7   2.186396   107.597   250.378
 H      8   7   3   2.178103   106.138   300.700
 H      8   7   3   2.183424   106.175    56.769
 H      7   3   2   2.193095   111.134   170.536
 H      7   3   2   2.189941   110.357   291.327
 C      9   8   7   3.081698   112.987   129.590
 C     16   9   8   3.192808   120.104   259.813
 C     17  16   9   3.173821   115.601   338.725
 H     18  17  16   2.188249   109.305   313.347
 H     18  17  16   2.188300   109.041   193.974
 H     18  17  16   2.185112   109.699    73.851
 H     17  16   9   2.180143   107.829    99.460
 H     17  16   9   2.179203   107.966   217.414
 H     16   9   8   2.191928   108.811    22.246
 H     16   9   8   2.194644   107.762   138.548
 C      1   2   3 100.902710   133.899   194.768
 C     26   1   2   2.637450   117.127   150.203
 C     27  26   1   2.701875   114.102   111.681
 C     28  27  26   2.642462   113.693     0.000
 S     26   1   2   3.133229   101.255   264.264
 H     27  26   1   2.157390   122.672   291.310
 C     28  27  26   3.052744   112.735   179.934
 C     32  28  27   3.183623   123.997   234.489
 C     33  32  28   3.158617   120.579   267.115
 H     34  33  32   2.176605   108.817    33.386
 H     34  33  32   2.183197   108.703   152.337
 H     33  32  28   2.189210   106.239    28.691
 H     33  32  28   2.184765   106.751   143.950
 H     32  28  27   2.215072   107.366   112.744
 H     32  28  27   2.212941   109.312   358.029
 C     34  33  32   3.086284   110.256   273.221
 C     41  34  33   3.200964   117.274   276.740
 C     42  41  34   3.186467   115.508    95.321
 H     43  42  41   2.186996   109.243    47.273
 H     43  42  41   2.184313   109.783   286.762
 H     43  42  41   2.187742   108.993   166.797
 H     42  41  34   2.177433   108.112   334.444
 H     42  41  34   2.177570   107.840   216.092
 H     41  34  33   2.189709   108.842    38.173
 H     41  34  33   2.188178   108.445   155.798
 H      1   2   3   2.003106   127.260   180.000
 H      4   3   2   2.003104   127.206   180.000
 H     26   1   2   2.003110    57.470    31.511
 H     29  28  27   2.003108   127.206   180.001

----------------------------
SLATER BASIS SET DIM= 120
----------------------------
  0 C     2 shells
 l=0 nsto= 1
    2       1.625000000000        1.000000000000
 l=1 nsto= 1
    2       1.625000000000        1.000000000000
  1 C     2 shells
 l=0 nsto= 1
    2       1.625000000000        1.000000000000
 l=1 nsto= 1
    2       1.625000000000        1.000000000000
  2 C     2 shells
 l=0 nsto= 1
    2       1.625000000000        1.000000000000
 l=1 nsto= 1
    2       1.625000000000        1.000000000000
  3 C     2 shells
 l=0 nsto= 1
    2       1.625000000000        1.000000000000
 l=1 nsto= 1
    2       1.625000000000        1.000000000000
  4 S     2 shells
 l=0 nsto= 1
    3       1.925000000000        1.000000000000
 l=1 nsto= 1
    3       1.925000000000        1.000000000000
  5 H     1 shells
 l=0 nsto= 1
    1       1.200000000000        1.000000000000
  6 C     2 shells
 l=0 nsto= 1
    2       1.625000000000        1.000000000000
 l=1 nsto= 1
    2       1.625000000000        1.000000000000
  7 C     2 shells
 l=0 nsto= 1
    2       1.625000000000        1.000000000000
 l=1 nsto= 1
    2       1.625000000000        1.000000000000
  8 C     2 shells
 l=0 nsto= 1
    2       1.625000000000        1.000000000000
 l=1 nsto= 1
    2       1.625000000000        1.000000000000
  9 H     1 shells
 l=0 nsto= 1
    1       1.200000000000        1.000000000000
 10 H     1 shells
 l=0 nsto= 1
    1       1.200000000000        1.000000000000
 11 H     1 shells
 l=0 nsto= 1
    1       1.200000000000        1.000000000000
 12 H     1 shells
 l=0 nsto= 1
    1       1.200000000000        1.000000000000
 13 H     1 shells
 l=0 nsto= 1
    1       1.200000000000        1.000000000000
 14 H     1 shells
 l=0 nsto= 1
    1       1.200000000000        1.000000000000
 15 C     2 shells
 l=0 nsto= 1
    2       1.625000000000        1.000000000000
 l=1 nsto= 1
    2       1.625000000000        1.000000000000
 16 C     2 shells
 l=0 nsto= 1
    2       1.625000000000        1.000000000000
 l=1 nsto= 1
    2       1.625000000000        1.000000000000
 17 C     2 shells
 l=0 nsto= 1
    2       1.625000000000        1.000000000000
 l=1 nsto= 1
    2       1.625000000000        1.000000000000
 18 H     1 shells
 l=0 nsto= 1
    1       1.200000000000        1.000000000000
 19 H     1 shells
 l=0 nsto= 1
    1       1.200000000000        1.000000000000
 20 H     1 shells
 l=0 nsto= 1
    1       1.200000000000        1.000000000000
 21 H     1 shells
 l=0 nsto= 1
    1       1.200000000000        1.000000000000
 22 H     1 shells
 l=0 nsto= 1
    1       1.200000000000        1.000000000000
 23 H     1 shells
 l=0 nsto= 1
    1       1.200000000000        1.000000000000
 24 H     1 shells
 l=0 nsto= 1
    1       1.200000000000        1.000000000000
 25 C     2 shells
 l=0 nsto= 1
    2       1.625000000000        1.000000000000
 l=1 nsto= 1
    2       1.625000000000        1.000000000000
 26 C     2 shells
 l=0 nsto= 1
    2       1.625000000000        1.000000000000
 l=1 nsto= 1
    2       1.625000000000        1.000000000000
 27 C     2 shells
 l=0 nsto= 1
    2       1.625000000000        1.000000000000
 l=1 nsto= 1
    2       1.625000000000        1.000000000000
 28 C     2 shells
 l=0 nsto= 1
    2       1.625000000000        1.000000000000
 l=1 nsto= 1
    2       1.625000000000        1.000000000000
 29 S     2 shells
 l=0 nsto= 1
    3       1.925000000000        1.000000000000
 l=1 nsto= 1
    3       1.925000000000        1.000000000000
 30 H     1 shells
 l=0 nsto= 1
    1       1.200000000000        1.000000000000
 31 C     2 shells
 l=0 nsto= 1
    2       1.625000000000        1.000000000000
 l=1 nsto= 1
    2       1.625000000000        1.000000000000
 32 C     2 shells
 l=0 nsto= 1
    2       1.625000000000        1.000000000000
 l=1 nsto= 1
    2       1.625000000000        1.000000000000
 33 C     2 shells
 l=0 nsto= 1
    2       1.625000000000        1.000000000000
 l=1 nsto= 1
    2       1.625000000000        1.000000000000
 34 H     1 shells
 l=0 nsto= 1
    1       1.200000000000        1.000000000000
 35 H     1 shells
 l=0 nsto= 1
    1       1.200000000000        1.000000000000
 36 H     1 shells
 l=0 nsto= 1
    1       1.200000000000        1.000000000000
 37 H     1 shells
 l=0 nsto= 1
    1       1.200000000000        1.000000000000
 38 H     1 shells
 l=0 nsto= 1
    1       1.200000000000        1.000000000000
 39 H     1 shells
 l=0 nsto= 1
    1       1.200000000000        1.000000000000
 40 C     2 shells
 l=0 nsto= 1
    2       1.625000000000        1.000000000000
 l=1 nsto= 1
    2       1.625000000000        1.000000000000
 41 C     2 shells
 l=0 nsto= 1
    2       1.625000000000        1.000000000000
 l=1 nsto= 1
    2       1.625000000000        1.000000000000
 42 C     2 shells
 l=0 nsto= 1
    2       1.625000000000        1.000000000000
 l=1 nsto= 1
    2       1.625000000000        1.000000000000
 43 H     1 shells
 l=0 nsto= 1
    1       1.200000000000        1.000000000000
 44 H     1 shells
 l=0 nsto= 1
    1       1.200000000000        1.000000000000
 45 H     1 shells
 l=0 nsto= 1
    1       1.200000000000        1.000000000000
 46 H     1 shells
 l=0 nsto= 1
    1       1.200000000000        1.000000000000
 47 H     1 shells
 l=0 nsto= 1
    1       1.200000000000        1.000000000000
 48 H     1 shells
 l=0 nsto= 1
    1       1.200000000000        1.000000000000
 49 H     1 shells
 l=0 nsto= 1
    1       1.200000000000        1.000000000000
 50 H     1 shells
 l=0 nsto= 1
    1       1.200000000000        1.000000000000
 51 H     1 shells
 l=0 nsto= 1
    1       1.200000000000        1.000000000000
 52 H     1 shells
 l=0 nsto= 1
    1       1.200000000000        1.000000000000
 53 H     1 shells
 l=0 nsto= 1
    1       1.200000000000        1.000000000000
------------------------------------------------------------------------------
                           ORCA NDO INTEGRAL CALCULATION
------------------------------------------------------------------------------

--------------
NDO PARAMETERS
--------------

Gamma integral treatment              ... Mataga-Nishimoto
Nuclear repulsuion treatment          ... Direct (ZA*ZB/RAB)
Interaction factors:
s-s (sigma) =    1.0000
s-p (sigma) =    1.0000
s-d (sigma) =    1.0000
p-p (sigma) =    1.2670  p-p(pi) =    0.5850
p-d (sigma) =    1.0000  p-d(pi) =    1.0000
d-d (sigma) =    1.0000  d-d(pi) =    1.0000 d-d (delta) =    1.0000

fGamma parameter for Mataga-Nishimoto gamma integrals:    1.2000

--------------------------
Parameters for Element H :
--------------------------
 One-electron parameters (in eV)
  U(s)  =   -13.060000 Beta(s) =    12.000000 Neff(s) =     1.000000
 One-center electron repulsion parameters (in eV)
  G(s,s)=    12.850000
--------------------------
Parameters for Element C :
--------------------------
 One-electron parameters (in eV)
  U(s)  =   -50.870766 Beta(s) =    17.000000 Neff(s) =     2.000000
  U(p)  =   -41.599980 Beta(p) =    17.000000 Neff(p) =     2.000000 
 One-center electron repulsion parameters (in eV)
  G(s,s)=    11.110000
  G(s,p)=    11.110000 G(p,p)  =    11.110000
 Slater-Condon parameters (in eV)
 F2(p,p)=     4.5098 G1(s,p)=    6.8977
--------------------------
Parameters for Element S :
--------------------------
 One-electron parameters (in eV)
  U(s)  =   -69.509597 Beta(s) =    15.000000 Neff(s) =     2.000000
  U(p)  =   -60.725746 Beta(p) =    15.000000 Neff(p) =     4.000000 
 One-center electron repulsion parameters (in eV)
  G(s,s)=    10.090000
  G(s,p)=    10.090000 G(p,p)  =    10.090000
 Slater-Condon parameters (in eV)
 F2(p,p)=     4.5377 G1(s,p)=    3.0756

 Number of atoms                    ....   54
 Number of basis functions          ....  120

 Overlap integrals                  .... done
 One electron matrix                .... done
 Nuclear repulsion                  .... done
 Integral list                      .... done
 Electron-electron repulsion        .... done
-------------------------------------------------------------------------------
                                 ORCA SCF
-------------------------------------------------------------------------------

------------
SCF SETTINGS
------------
Hamiltonian:
 ZDO-Hamiltonian        Method          .... INDO


General Settings:
 Integral files         IntName         .... /Users/mattyjones/GoogleDrive/Boise/Code/MorphCT/tests/output_EZ/donor_polymer/chromophores/input_orca/pair/00013-00019
 Hartree-Fock type      HFTyp           .... RHF
 Total Charge           Charge          ....    0
 Multiplicity           Mult            ....    1
 Number of Electrons    NEL             ....  124
 Basis Dimension        Dim             ....  120
 Nuclear Repulsion      ENuc            ....    626.5150814089 Eh

Convergence Acceleration:
 DIIS                   CNVDIIS         .... on
   Start iteration      DIISMaxIt       ....    12
   Startup error        DIISStart       ....  0.200000
   # of expansion vecs  DIISMaxEq       ....     5
   Bias factor          DIISBfac        ....   1.050
   Max. coefficient     DIISMaxC        ....  10.000
 Newton-Raphson         CNVNR           .... off
 SOSCF                  CNVSOSCF        .... on
   Start iteration      SOSCFMaxIt      ....   150
   Startup grad/error   SOSCFStart      ....  0.003300
 Level Shifting         CNVShift        .... on
   Level shift para.    LevelShift      ....    0.2500
   Turn off err/grad.   ShiftErr        ....    0.0010
 Zerner damping         CNVZerner       .... off
 Static damping         CNVDamp         .... on
   Fraction old density DampFac         ....    0.7000
   Max. Damping (<1)    DampMax         ....    0.9800
   Min. Damping (>=0)   DampMin         ....    0.0000
   Turn off err/grad.   DampErr         ....    0.1000
 Fernandez-Rico         CNVRico         .... off

SCF Procedure:
 Maximum # iterations   MaxIter         ....   125
 SCF integral mode      SCFMode         .... Conventional
 Integral Buffer length BufferLength    .... 1048576
 Integral index format  IndFormat       ....     0
 Integral value format  ValFormat       ....     0
 Integral Storage       Thresh          ....  1.000e-08 Eh

Convergence Tolerance:
 Convergence Check Mode ConvCheckMode   .... Total+1el-Energy
 Energy Change          TolE            ....  1.000e-06 Eh
 1-El. energy change                    ....  1.000e-03 Eh
 Orbital Gradient       TolG            ....  5.000e-05
 Orbital Rotation angle TolX            ....  5.000e-05
 DIIS Error             TolErr          ....  1.000e-06


Diagonalization of the overlap matrix:
Smallest eigenvalue                        ... 1.688e-01
Time for diagonalization                   ...    0.003 sec
Threshold for overlap eigenvalues          ... 1.000e-08
Number of eigenvalues below threshold      ... 0
Time for construction of square roots      ...    0.001 sec
Total time needed                          ...    0.004 sec

-------------------------------
INITIAL GUESS: EXTENDED HUECKEL
-------------------------------
EHT matrix was read from disk
EHT matrix was diagonalized
Initial density was built
                      ------------------
                      INITIAL GUESS DONE
                      ------------------

 InCore treatment chosen:
   Memory dedicated               ...    1024 MB
   Memory needed                  ...      0 MB
   Number of tiny    integrals    ...       0
   Number of small   integrals    ...       0
   Number of regular integrals    ...    7392

--------------
SCF ITERATIONS
--------------
ITER       Energy         Delta-E        Max-DP      RMS-DP      [F,P]     Damp
  0    -18.1595088142   0.000000000000 0.04489923  0.00148248  0.1252971 0.7000
  1    -18.2028737454  -0.043364931235 0.04331843  0.00139855  0.0859313 0.7000
                               ***Turning on DIIS***
  2    -18.2348962236  -0.032022478170 0.11279917  0.00359048  0.0523636 0.0000
  3    -18.3189982603  -0.084102036742 0.01999091  0.00074812  0.0225568 0.0000
  4    -18.3027726777   0.016225582667 0.01442057  0.00052114  0.0087293 0.0000
  5    -18.3206881341  -0.017915456442 0.01018223  0.00035411  0.0051495 0.0000
  6    -18.3225406715  -0.001852537430 0.00722109  0.00025283  0.0028322 0.0000
                      *** Initiating the SOSCF procedure ***
                           *** Shutting down DIIS ***
                      *** Re-Reading the Fockian *** 
                      *** Removing any level shift *** 
ITER      Energy       Delta-E        Grad      Rot      Max-DP    RMS-DP
  7    -18.31894803   0.0035926428  0.003229  0.003229  0.004202  0.000145
  8    -18.31684674   0.0021012926  0.000945  0.002688  0.002096  0.000069
  9    -18.31686408  -0.0000173435  0.000417  0.002702  0.002435  0.000076
 10    -18.31687076  -0.0000066762  0.000041  0.000085  0.000169  0.000005
                 **** Energy Check signals convergence ****
              ***Rediagonalizing the Fockian in SOSCF/NRSCF***

               *****************************************************
               *                     SUCCESS                       *
               *           SCF CONVERGED AFTER  11 CYCLES          *
               *****************************************************


----------------
TOTAL SCF ENERGY
----------------

Total Energy       :          -18.31687083 Eh            -498.42739 eV

Components:
Nuclear Repulsion  :          626.51508141 Eh           17048.34209 eV
Electronic Energy  :         -644.83195224 Eh          -17546.76948 eV

One Electron Energy:        -1199.24985771 Eh          -32633.24767 eV
Two Electron Energy:          554.41790547 Eh           15086.47819 eV


---------------
SCF CONVERGENCE
---------------

  Last Energy change         ...   -7.3204e-08  Tolerance :   1.0000e-06
  Last MAX-Density change    ...    6.2490e-05  Tolerance :   1.0000e-05
  Last RMS-Density change    ...    1.8796e-06  Tolerance :   1.0000e-06
  Last Orbital Gradient      ...    1.8358e-05  Tolerance :   5.0000e-05
  Last Orbital Rotation      ...    3.7166e-05  Tolerance :   5.0000e-05

             **** THE GBW FILE WAS UPDATED (/Users/mattyjones/GoogleDrive/Boise/Code/MorphCT/tests/output_EZ/donor_polymer/chromophores/input_orca/pair/00013-00019.gbw) ****
             **** DENSITY FILE WAS UPDATED (/Users/mattyjones/GoogleDrive/Boise/Code/MorphCT/tests/output_EZ/donor_polymer/chromophores/input_orca/pair/00013-00019.scfp.tmp) ****
             **** ENERGY FILE WAS UPDATED (/Users/mattyjones/GoogleDrive/Boise/Code/MorphCT/tests/output_EZ/donor_polymer/chromophores/input_orca/pair/00013-00019.en.tmp) ****
----------------
ORBITAL ENERGIES
----------------

  NO   OCC          E(Eh)            E(eV) 
   0   2.0000      -1.562107       -42.5071 
   1   2.0000      -1.558135       -42.3990 
   2   2.0000      -1.412949       -38.4483 
   3   2.0000      -1.404495       -38.2183 
   4   2.0000      -1.289072       -35.0774 
   5   2.0000      -1.281390       -34.8684 
   6   2.0000      -1.181135       -32.1403 
   7   2.0000      -1.179177       -32.0870 
   8   2.0000      -1.115581       -30.3565 
   9   2.0000      -1.110311       -30.2131 
  10   2.0000      -1.060325       -28.8529 
  11   2.0000      -1.041748       -28.3474 
  12   2.0000      -0.965705       -26.2782 
  13   2.0000      -0.956286       -26.0219 
  14   2.0000      -0.916986       -24.9525 
  15   2.0000      -0.894860       -24.3504 
  16   2.0000      -0.855091       -23.2682 
  17   2.0000      -0.833101       -22.6698 
  18   2.0000      -0.829826       -22.5807 
  19   2.0000      -0.824224       -22.4283 
  20   2.0000      -0.783891       -21.3308 
  21   2.0000      -0.768548       -20.9132 
  22   2.0000      -0.725082       -19.7305 
  23   2.0000      -0.724593       -19.7172 
  24   2.0000      -0.718047       -19.5391 
  25   2.0000      -0.709632       -19.3101 
  26   2.0000      -0.679524       -18.4908 
  27   2.0000      -0.674091       -18.3429 
  28   2.0000      -0.647121       -17.6091 
  29   2.0000      -0.634492       -17.2654 
  30   2.0000      -0.612551       -16.6683 
  31   2.0000      -0.606030       -16.4909 
  32   2.0000      -0.593751       -16.1568 
  33   2.0000      -0.593415       -16.1477 
  34   2.0000      -0.578212       -15.7340 
  35   2.0000      -0.576096       -15.6764 
  36   2.0000      -0.572990       -15.5919 
  37   2.0000      -0.561862       -15.2890 
  38   2.0000      -0.557430       -15.1684 
  39   2.0000      -0.537348       -14.6220 
  40   2.0000      -0.535438       -14.5700 
  41   2.0000      -0.534139       -14.5347 
  42   2.0000      -0.524580       -14.2746 
  43   2.0000      -0.522518       -14.2184 
  44   2.0000      -0.505708       -13.7610 
  45   2.0000      -0.503714       -13.7068 
  46   2.0000      -0.498099       -13.5540 
  47   2.0000      -0.495022       -13.4702 
  48   2.0000      -0.487432       -13.2637 
  49   2.0000      -0.487204       -13.2575 
  50   2.0000      -0.479034       -13.0352 
  51   2.0000      -0.470546       -12.8042 
  52   2.0000      -0.468557       -12.7501 
  53   2.0000      -0.468369       -12.7450 
  54   2.0000      -0.456885       -12.4325 
  55   2.0000      -0.455983       -12.4079 
  56   2.0000      -0.436909       -11.8889 
  57   2.0000      -0.434582       -11.8256 
  58   2.0000      -0.356719        -9.7068 
  59   2.0000      -0.348933        -9.4950 
  60   2.0000      -0.305054        -8.3009 
  61   2.0000      -0.304427        -8.2839 
  62   0.0000       0.002776         0.0755 
  63   0.0000       0.007523         0.2047 
  64   0.0000       0.058454         1.5906 
  65   0.0000       0.069391         1.8882 
  66   0.0000       0.076908         2.0928 
  67   0.0000       0.077753         2.1158 
  68   0.0000       0.085983         2.3397 
  69   0.0000       0.092351         2.5130 
  70   0.0000       0.104589         2.8460 
  71   0.0000       0.104877         2.8538 
  72   0.0000       0.107998         2.9388 
  73   0.0000       0.108531         2.9533 
  74   0.0000       0.123318         3.3556 
  75   0.0000       0.125319         3.4101 
  76   0.0000       0.141663         3.8549 
  77   0.0000       0.144670         3.9367 
  78   0.0000       0.158382         4.3098 
  79   0.0000       0.160481         4.3669 
  80   0.0000       0.165857         4.5132 
  81   0.0000       0.166387         4.5276 
  82   0.0000       0.166662         4.5351 
  83   0.0000       0.179419         4.8822 
  84   0.0000       0.199702         5.4342 
  85   0.0000       0.203841         5.5468 
  86   0.0000       0.230774         6.2797 
  87   0.0000       0.233207         6.3459 
  88   0.0000       0.233670         6.3585 
  89   0.0000       0.236463         6.4345 
  90   0.0000       0.237575         6.4647 
  91   0.0000       0.238194         6.4816 
  92   0.0000       0.238263         6.4835 
  93   0.0000       0.239603         6.5199 
  94   0.0000       0.241017         6.5584 
  95   0.0000       0.241116         6.5611 
  96   0.0000       0.243078         6.6145 
  97   0.0000       0.245017         6.6672 
  98   0.0000       0.245198         6.6722 
  99   0.0000       0.245561         6.6821 
 100   0.0000       0.250742         6.8230 
 101   0.0000       0.250938         6.8284 
 102   0.0000       0.257272         7.0007 
 103   0.0000       0.259731         7.0676 
 104   0.0000       0.265806         7.2330 
 105   0.0000       0.267067         7.2673 
 106   0.0000       0.284986         7.7549 
 107   0.0000       0.285610         7.7718 
 108   0.0000       0.306944         8.3524 
 109   0.0000       0.306999         8.3539 
 110   0.0000       0.309410         8.4195 
 111   0.0000       0.311146         8.4667 
 112   0.0000       0.336372         9.1531 
 113   0.0000       0.337485         9.1834 
 114   0.0000       0.349862         9.5202 
 115   0.0000       0.352109         9.5814 
 116   0.0000       0.411936        11.2094 
 117   0.0000       0.420653        11.4465 
 118   0.0000       0.428732        11.6664 
 119   0.0000       0.430795        11.7225 
-------
TIMINGS
-------

Total SCF time: 0 days 0 hours 0 min 0 sec 

Total time                  ....       0.129 sec
Sum of individual times     ....       0.103 sec  ( 80.1%)

Fock matrix formation       ....       0.051 sec  ( 40.0%)
Diagonalization             ....       0.026 sec  ( 19.9%)
Density matrix formation    ....       0.005 sec  (  4.1%)
Population analysis         ....       0.000 sec  (  0.0%)
Initial guess               ....       0.003 sec  (  2.3%)
Orbital Transformation      ....       0.000 sec  (  0.0%)
Orbital Orthonormalization  ....       0.000 sec  (  0.0%)
DIIS solution               ....       0.011 sec  (  8.8%)
SOSCF solution              ....       0.007 sec  (  5.1%)

-------------------------   --------------------
FINAL SINGLE POINT ENERGY       -18.316870829045
-------------------------   --------------------


                            ***************************************
                            *     ORCA property calculations      *
                            ***************************************

                                    ---------------------
                                    Active property flags
                                    ---------------------
   (+) Dipole Moment


------------------------------------------------------------------------------
                       ORCA ELECTRIC PROPERTIES CALCULATION
------------------------------------------------------------------------------

Dipole Moment Calculation                       ... on
Quadrupole Moment Calculation                   ... off
Polarizability Calculation                      ... off
GBWName                                         ... /Users/mattyjones/GoogleDrive/Boise/Code/MorphCT/tests/output_EZ/donor_polymer/chromophores/input_orca/pair/00013-00019.gbw
Electron density file                           ... /Users/mattyjones/GoogleDrive/Boise/Code/MorphCT/tests/output_EZ/donor_polymer/chromophores/input_orca/pair/00013-00019.scfp.tmp

-------------
DIPOLE MOMENT
-------------
                                X             Y             Z
Electronic contribution:      0.74224      23.33883      25.62051
Nuclear contribution   :      2.60876     -12.57246     -12.11900
                        -----------------------------------------
Total Dipole Moment    :      3.35099      10.76637      13.50151
                        -----------------------------------------
Magnitude (a.u.)       :     17.59075
Magnitude (Debye)      :     44.71214


Timings for individual modules:

Sum of individual times         ...        0.223 sec (=   0.004 min)
STO integral calculation        ...        0.045 sec (=   0.001 min)  20.3 %
SCF iterations                  ...        0.178 sec (=   0.003 min)  79.7 %
                             ****ORCA TERMINATED NORMALLY****
TOTAL RUN TIME: 0 days 0 hours 0 minutes 0 seconds 533 msec

