
                                 *****************
                                 * O   R   C   A *
                                 *****************

           --- An Ab Initio, DFT and Semiempirical electronic structure package ---

                  #######################################################
                  #                        -***-                        #
                  #  Department of molecular theory and spectroscopy    #
                  #              Directorship: Frank Neese              #
                  # Max Planck Institute for Chemical Energy Conversion #
                  #                  D-45470 Muelheim/Ruhr              #
                  #                       Germany                       #
                  #                                                     #
                  #                  All rights reserved                #
                  #                        -***-                        #
                  #######################################################


                         Program Version 3.0.3 - RELEASE   -


 With contributions from (in alphabetic order):
   Ute Becker             : Parallelization
   Dmytro Bykov           : SCF Hessian
   Dmitry Ganyushin       : Spin-Orbit,Spin-Spin,Magnetic field MRCI
   Andreas Hansen         : Spin unrestricted coupled pair/coupled cluster methods
   Dimitrios Liakos       : Extrapolation schemes; parallel MDCI
   Robert Izsak           : Overlap fitted RIJCOSX, COSX-SCS-MP3
   Christian Kollmar      : KDIIS, OOCD, Brueckner-CCSD(T), CCSD density
   Simone Kossmann        : Meta GGA functionals, TD-DFT gradient, OOMP2, MP2 Hessian
   Taras Petrenko         : DFT Hessian,TD-DFT gradient, ASA and ECA modules, normal mode analysis, Resonance Raman, ABS, FL, XAS/XES, NRVS
   Christoph Reimann      : Effective Core Potentials
   Michael Roemelt        : Restricted open shell CIS
   Christoph Riplinger    : Improved optimizer, TS searches, QM/MM, DLPNO-CCSD
   Barbara Sandhoefer     : DKH picture change effects
   Igor Schapiro          : Molecular dynamics
   Kantharuban Sivalingam : CASSCF convergence, NEVPT2
   Boris Wezisla          : Elementary symmetry handling
   Frank Wennmohs         : Technical directorship


 We gratefully acknowledge several colleagues who have allowed us to
 interface, adapt or use parts of their codes:
   Stefan Grimme, W. Hujo, H. Kruse, T. Risthaus : VdW corrections, initial TS optimization,
                                                   DFT functionals, gCP
   Ed Valeev                                     : LibInt (2-el integral package), F12 methods
   Garnet Chan, S. Sharma, R. Olivares           : DMRG
   Ulf Ekstrom                                   : XCFun DFT Library
   Mihaly Kallay                                 : mrcc  (arbitrary order and MRCC methods)
   Andreas Klamt, Michael Diedenhofen            : otool_cosmo (COSMO solvation model)
   Frank Weinhold                                : gennbo (NPA and NBO analysis)
   Christopher J. Cramer and Donald G. Truhlar   : smd solvation model


 Your calculation uses the libint2 library for the computation of 2-el integrals
 For citations please refer to: http://libint.valeyev.net

 This ORCA versions uses:
   CBLAS   interface :  Fast vector & matrix operations
   LAPACKE interface :  Fast linear algebra routines
   SCALAPACK package :  Parallel linear algebra routines


leaving
================================================================================
                                        WARNINGS
                       Please study these warnings very carefully!
================================================================================
Now building the actual basis set

WARNING: Direct SCF is incompatible with Method<>HF and Method<>DFT
  ===> : conventional SCF is chosen

WARNING: The NDO methods need Guess=HUECKEL or Guess=HCORE or Guess=MOREAD
  ===> : Guess is set to Hueckel

WARNING: The NDO methods need %rel::SOCType==1
  ===> : %rel::SOCType is set to 1

WARNING: The NDO methods cannot have frozencore=1
  ===> : %method FrozenCore=0 end


INFO   : the flag for use of LIBINT has been found!

================================================================================
                                       INPUT FILE
================================================================================
NAME = /Users/mattyjones/GoogleDrive/Boise/Code/MorphCT/tests/output_EZ/donor_polymer/chromophores/input_orca/pair/00010-00026.inp
|  1> # ================================================================
|  2> # Orca input file made by Matty Jones
|  3> # ================================================================
|  4> ! ZINDO/S 
|  5> ! NOPOP
|  6> ! NOMOPRINT
|  7> * xyz 0   1
|  8>  C  -13.63644  -9.15476  -2.92716
|  9>  C  -14.24400  -10.32222  -2.46262
| 10>  C  -13.67406  -10.83691  -1.25658
| 11>  C  -12.61111  -10.07201  -0.76632
| 12>  S  -12.43485  -8.81679  -1.83580
| 13>  H  -15.11364  -10.83995  -2.98850
| 14>  C  -14.25414  -12.18457  -0.58026
| 15>  C  -15.91952  -12.35986  -0.22649
| 16>  C  -17.22556  -12.96404  -1.13622
| 17>  H  -17.74444  -13.72905  -0.42837
| 18>  H  -17.94549  -12.05955  -1.25869
| 19>  H  -15.92289  -13.01797  0.72995
| 20>  H  -16.24872  -11.28935  0.07023
| 21>  H  -13.74926  -12.41259  0.43345
| 22>  H  -14.01593  -13.07401  -1.29340
| 23>  C  -17.10716  -13.68299  -2.59102
| 24>  C  -18.64481  -14.07571  -3.20387
| 25>  C  -19.25660  -15.58200  -2.76693
| 26>  H  -20.40060  -15.59345  -2.94714
| 27>  H  -19.03881  -15.77947  -1.64838
| 28>  H  -18.75574  -16.40012  -3.41352
| 29>  H  -18.58342  -14.03607  -4.35400
| 30>  H  -19.38821  -13.27600  -2.83357
| 31>  H  -16.59535  -12.97364  -3.34362
| 32>  H  -16.49467  -14.65781  -2.50950
| 33>  C  14.24106  9.14585  -0.91087
| 34>  C  14.82250  9.80767  0.17164
| 35>  C  13.98029  10.79366  0.77396
| 36>  C  12.72750  10.91100  0.16398
| 37>  S  12.72779  9.80420  -1.07111
| 38>  H  15.88008  9.59691  0.54832
| 39>  C  14.39707  11.72766  2.02987
| 40>  C  15.71166  12.77401  1.79580
| 41>  C  16.12680  13.81957  3.06701
| 42>  H  15.14787  14.29728  3.45697
| 43>  H  16.59630  13.19520  3.91515
| 44>  H  16.63588  12.13226  1.55431
| 45>  H  15.44624  13.43277  0.88701
| 46>  H  13.50529  12.35024  2.43244
| 47>  H  14.72871  11.02500  2.90625
| 48>  C  17.14356  15.00147  2.58221
| 49>  C  18.80696  14.71598  2.63579
| 50>  C  19.25648  13.26095  3.34194
| 51>  H  20.40022  13.12057  3.22895
| 52>  H  18.70697  12.38749  2.82085
| 53>  H  18.98028  13.28322  4.46590
| 54>  H  19.19916  14.71753  1.55012
| 55>  H  19.30487  15.57537  3.22126
| 56>  H  16.89009  15.28379  1.48688
| 57>  H  16.95206  15.93549  3.24312
| 58>  H  -13.88977  -8.60093  -3.79474
| 59>  H  -12.03798  -10.25594  0.10620
| 60>  H  14.67534  8.38315  -1.50525
| 61>  H  11.94209  11.56949  0.43438
| 62> *
| 63> 
| 64>                          ****END OF INPUT****
================================================================================

                       ****************************
                       * Single Point Calculation *
                       ****************************

---------------------------------
CARTESIAN COORDINATES (ANGSTROEM)
---------------------------------
  C    -13.636440   -9.154760   -2.927160
  C    -14.244000  -10.322220   -2.462620
  C    -13.674060  -10.836910   -1.256580
  C    -12.611110  -10.072010   -0.766320
  S    -12.434850   -8.816790   -1.835800
  H    -15.113640  -10.839950   -2.988500
  C    -14.254140  -12.184570   -0.580260
  C    -15.919520  -12.359860   -0.226490
  C    -17.225560  -12.964040   -1.136220
  H    -17.744440  -13.729050   -0.428370
  H    -17.945490  -12.059550   -1.258690
  H    -15.922890  -13.017970    0.729950
  H    -16.248720  -11.289350    0.070230
  H    -13.749260  -12.412590    0.433450
  H    -14.015930  -13.074010   -1.293400
  C    -17.107160  -13.682990   -2.591020
  C    -18.644810  -14.075710   -3.203870
  C    -19.256600  -15.582000   -2.766930
  H    -20.400600  -15.593450   -2.947140
  H    -19.038810  -15.779470   -1.648380
  H    -18.755740  -16.400120   -3.413520
  H    -18.583420  -14.036070   -4.354000
  H    -19.388210  -13.276000   -2.833570
  H    -16.595350  -12.973640   -3.343620
  H    -16.494670  -14.657810   -2.509500
  C     14.241060    9.145850   -0.910870
  C     14.822500    9.807670    0.171640
  C     13.980290   10.793660    0.773960
  C     12.727500   10.911000    0.163980
  S     12.727790    9.804200   -1.071110
  H     15.880080    9.596910    0.548320
  C     14.397070   11.727660    2.029870
  C     15.711660   12.774010    1.795800
  C     16.126800   13.819570    3.067010
  H     15.147870   14.297280    3.456970
  H     16.596300   13.195200    3.915150
  H     16.635880   12.132260    1.554310
  H     15.446240   13.432770    0.887010
  H     13.505290   12.350240    2.432440
  H     14.728710   11.025000    2.906250
  C     17.143560   15.001470    2.582210
  C     18.806960   14.715980    2.635790
  C     19.256480   13.260950    3.341940
  H     20.400220   13.120570    3.228950
  H     18.706970   12.387490    2.820850
  H     18.980280   13.283220    4.465900
  H     19.199160   14.717530    1.550120
  H     19.304870   15.575370    3.221260
  H     16.890090   15.283790    1.486880
  H     16.952060   15.935490    3.243120
  H    -13.889770   -8.600930   -3.794740
  H    -12.037980  -10.255940    0.106200
  H     14.675340    8.383150   -1.505250
  H     11.942090   11.569490    0.434380

----------------------------
CARTESIAN COORDINATES (A.U.)
----------------------------
  NO LB      ZA    FRAG    MASS        X           Y           Z
   0 C     4.0000    0    12.011        -25.769137041649113        -17.299989221776919         -5.531530750168931
   1 C     4.0000    0    12.011        -26.917259051574309        -19.506168894084620         -4.653677371917152
   2 C     4.0000    0    12.011        -25.840228538807231        -20.478792037952552         -2.374592065362767
   3 C     4.0000    0    12.011        -23.831544144755636        -19.033340518116187         -1.448134930946534
   4 S     6.0000    0    32.060        -23.498461016390678        -16.661318480295552         -3.469159236652634
   5 H     1.0000    0     1.008        -28.560640486677585        -20.484536805399671         -5.647446551223661
   6 C     4.0000    0    12.011        -26.936420874572271        -23.025500359592868         -1.096532486469145
   7 C     4.0000    0    12.011        -30.083532983482044        -23.356750453607919         -0.428004072071824
   8 C     4.0000    0    12.011        -32.551590903428561        -24.498485189200466         -2.147144627884005
   9 H     1.0000    0     1.008        -33.532131999797613        -25.944144578911562         -0.809501983987847
  10 H     1.0000    0     1.008        -33.912061439022480        -22.789246798330030         -2.378579387505340
  11 H     1.0000    0     1.008        -30.089901360553359        -24.600398119602836          1.379405591455818
  12 H     1.0000    0     1.008        -30.705630826768918        -21.333779729983885          0.132715466385289
  13 H     1.0000    0     1.008        -25.982335944078109        -23.456395712649588          0.819101792748167
  14 H     1.0000    0     1.008        -26.486269212210889        -24.706298372147781         -2.444171781613747
  15 C     4.0000    0    12.011        -32.327847329172279        -25.857103793183146         -4.896318207512642
  16 C     4.0000    0    12.011        -35.233584718996291        -26.599237040496703         -6.054436868686281
  17 C     4.0000    0    12.011        -36.389700270467969        -29.445712618760943         -5.228739931730729
  18 H     1.0000    0     1.008        -38.551546967673886        -29.467349982994342         -5.569287478324678
  19 H     1.0000    0     1.008        -35.978136815761268        -29.818876838426373         -3.114986764633113
  20 H     1.0000    0     1.008        -35.443212039032176        -30.991735363444601         -6.450617952662872
  21 H     1.0000    0     1.008        -35.117574431634864        -26.524328296548063         -8.227867587093129
  22 H     1.0000    0     1.008        -36.638407126953354        -25.088004153938538         -5.354671281295241
  23 H     1.0000    0     1.008        -31.360666596570045        -24.516626560086106         -6.318526095901776
  24 H     1.0000    0     1.008        -31.170408969406850        -27.699246623052261         -4.742267733075381
  25 C     4.0000    0    12.011         26.911703256740580         17.283151761923680         -1.721294843604851
  26 C     4.0000    0    12.011         28.010465620047754         18.533810311875442          0.324352593626244
  27 C     4.0000    0    12.011         26.418919372797937         20.397061382660457          1.462572438609692
  28 C     4.0000    0    12.011         24.051489369482727         20.618801847214776          0.309877291440407
  29 S     6.0000    0    32.060         24.052037390061567         18.527252962190737         -2.024104559304392
  30 H     1.0000    0     1.008         30.009002184760188         18.135531631890199          1.036174633751701
  31 C     4.0000    0    12.011         27.206519430893632         22.162065591742905          3.835898387462731
  32 C     4.0000    0    12.011         29.690734509285175         24.139380531971408          3.393570191295784
  33 C     4.0000    0    12.011         30.475235416521240         26.115202588554112          5.795808949997817
  34 H     1.0000    0     1.008         28.625325812241709         27.017943659989633          6.532726553181750
  35 H     1.0000    0     1.008         31.362461836397269         24.935314282317698          7.398561273221788
  36 H     1.0000    0     1.008         31.437257196777871         22.926648785527444          2.937220227215141
  37 H     1.0000    0     1.008         29.189163398819794         25.384256519953372          1.676205978049489
  38 H     1.0000    0     1.008         25.521299459185343         23.338571288199599          4.596645437195409
  39 H     1.0000    0     1.008         27.833228205947279         20.834230626481801          5.492016576708638
  40 C     4.0000    0    12.011         32.396633360447012         28.348669906235639          4.879669720272795
  41 C     4.0000    0    12.011         35.540003811611626         27.809171992262460          4.980921246528296
  42 C     4.0000    0    12.011         36.389473503331907         25.059563775623023          6.315351355996788
  43 H     1.0000    0     1.008         38.550828871743001         24.794284020943159          6.101831200125026
  44 H     1.0000    0     1.008         35.351050095480836         23.408963586688166          5.330633964871763
  45 H     1.0000    0     1.008         35.867531145142856         25.101647976625447          8.439327941478918
  46 H     1.0000    0     1.008         36.281154401335534         27.812101067770040          2.929302274714011
  47 H     1.0000    0     1.008         36.480917350952353         29.433183734493046          6.087299206155171
  48 H     1.0000    0     1.008         31.917644477281996         28.882177388364287          2.809795994004831
  49 H     1.0000    0     1.008         32.034750805801096         30.113711909840767          6.128608619442689
  50 H     1.0000    0     1.008        -26.247861363155383        -16.253402197027309         -7.171019349436331
  51 H     1.0000    0     1.008        -22.748485405621349        -19.380917845928323          0.200688915422437
  52 H     1.0000    0     1.008         27.732373522179902         15.841857639581942         -2.844510263084964
  53 H     1.0000    0     1.008         22.567279566639641         21.863167609140582          0.820859238052713

--------------------------------
INTERNAL COORDINATES (ANGSTROEM)
--------------------------------
 C      0   0   0   0.000000     0.000     0.000
 C      1   0   0   1.395668     0.000     0.000
 C      2   1   0   1.429780   114.101     0.000
 C      3   2   1   1.398317   113.694     0.000
 S      1   2   3   1.658044   105.480     0.000
 H      2   1   3   1.140556   123.928   180.474
 C      3   2   1   1.615577   120.682   180.107
 C      7   3   2   1.711540   121.422   307.098
 C      8   7   3   1.702464   132.249    89.752
 H      9   8   7   1.164272   104.489   129.762
 H      9   8   7   1.162497   104.789   242.588
 H      8   7   3   1.160990   103.365   212.752
 H      8   7   3   1.158623   103.578   325.534
 H      7   3   2   1.155208   112.029   185.097
 H      7   3   2   1.164653   107.895    67.222
 C      9   8   7   1.627068   125.364     6.719
 C     16   9   8   1.701229   110.998   182.822
 C     17  16   9   1.683482   116.200   271.461
 H     18  17  16   1.158164   109.112   162.058
 H     18  17  16   1.156538   109.594    42.093
 H     18  17  16   1.156832   109.291   281.759
 H     17  16   9   1.152449   107.664   150.243
 H     17  16   9   1.152953   107.876    32.356
 H     16   9   8   1.153921   110.109   302.273
 H     16   9   8   1.154151   110.406    63.006
 C      5   1   2  32.173220   137.189   161.921
 C     26   5   1   1.395674   129.232   147.737
 C     27  26   5   1.429784   114.101   299.627
 C     28  27  26   1.398330   113.693     0.000
 S     26   5   1   1.658037    57.464    64.178
 H     27  26   5   1.142271   123.641   120.135
 C     28  27  26   1.619683   124.942   180.884
 C     32  28  27   1.696403   116.622    61.836
 C     33  32  28   1.697502   117.782   177.118
 H     34  33  32   1.156970   107.446   314.088
 H     34  33  32   1.153087   108.475    71.400
 H     33  32  28   1.150801   107.899   299.225
 H     33  32  28   1.153391   106.420    56.964
 H     32  28  27   1.159715   112.387   187.619
 H     32  28  27   1.171221   107.885   304.440
 C     34  33  32   1.632703   112.074   194.182
 C     41  34  33   1.688572   118.793   271.444
 C     42  41  34   1.678639   115.068   354.151
 H     43  42  41   1.157849   109.182   174.296
 H     43  42  41   1.156040   109.755    54.254
 H     43  42  41   1.157613   109.140   293.878
 H     42  41  34   1.154341   107.736   114.421
 H     42  41  34   1.152927   108.392   232.541
 H     41  34  33   1.159181   108.706    33.539
 H     41  34  33   1.160115   108.111   150.334
 H      1   2   3   1.059999   127.260   180.000
 H      4   3   2   1.060000   127.207   180.000
 H     26   5   1   1.059999    85.518   283.792
 H     29  28  27   1.059997   127.206   180.000

---------------------------
INTERNAL COORDINATES (A.U.)
---------------------------
 C      0   0   0   0.000000     0.000     0.000
 C      1   0   0   2.637430     0.000     0.000
 C      2   1   0   2.701892   114.101     0.000
 C      3   2   1   2.642436   113.694     0.000
 S      1   2   3   3.133249   105.480     0.000
 H      2   1   3   2.155338   123.928   180.474
 C      3   2   1   3.052998   120.682   180.107
 C      7   3   2   3.234343   121.422   307.098
 C      8   7   3   3.217190   132.249    89.752
 H      9   8   7   2.200154   104.489   129.762
 H      9   8   7   2.196802   104.789   242.588
 H      8   7   3   2.193953   103.365   212.752
 H      8   7   3   2.189480   103.578   325.534
 H      7   3   2   2.183026   112.029   185.097
 H      7   3   2   2.200875   107.895    67.222
 C      9   8   7   3.074713   125.364     6.719
 C     16   9   8   3.214858   110.998   182.822
 C     17  16   9   3.181321   116.200   271.461
 H     18  17  16   2.188612   109.112   162.058
 H     18  17  16   2.185541   109.594    42.093
 H     18  17  16   2.186095   109.291   281.759
 H     17  16   9   2.177813   107.664   150.243
 H     17  16   9   2.178766   107.876    32.356
 H     16   9   8   2.180595   110.109   302.273
 H     16   9   8   2.181028   110.406    63.006
 C      5   1   2  60.798575   137.189   161.921
 C     26   5   1   2.637442   129.232   147.737
 C     27  26   5   2.701901   114.101   299.627
 C     28  27  26   2.642461   113.693     0.000
 S     26   5   1   3.133236    57.464    64.178
 H     27  26   5   2.158579   123.641   120.135
 C     28  27  26   3.060756   124.942   180.884
 C     32  28  27   3.205738   116.622    61.836
 C     33  32  28   3.207813   117.782   177.118
 H     34  33  32   2.186356   107.446   314.088
 H     34  33  32   2.179019   108.475    71.400
 H     33  32  28   2.174699   107.899   299.225
 H     33  32  28   2.179594   106.420    56.964
 H     32  28  27   2.191545   112.387   187.619
 H     32  28  27   2.213286   107.885   304.440
 C     34  33  32   3.085362   112.074   194.182
 C     41  34  33   3.190938   118.793   271.444
 C     42  41  34   3.172168   115.068   354.151
 H     43  42  41   2.188018   109.182   174.296
 H     43  42  41   2.184599   109.755    54.254
 H     43  42  41   2.187572   109.140   293.878
 H     42  41  34   2.181388   107.736   114.421
 H     42  41  34   2.178716   108.392   232.541
 H     41  34  33   2.190534   108.706    33.539
 H     41  34  33   2.192300   108.111   150.334
 H      1   2   3   2.003109   127.260   180.000
 H      4   3   2   2.003109   127.207   180.000
 H     26   5   1   2.003108    85.518   283.792
 H     29  28  27   2.003104   127.206   180.000

----------------------------
SLATER BASIS SET DIM= 120
----------------------------
  0 C     2 shells
 l=0 nsto= 1
    2       1.625000000000        1.000000000000
 l=1 nsto= 1
    2       1.625000000000        1.000000000000
  1 C     2 shells
 l=0 nsto= 1
    2       1.625000000000        1.000000000000
 l=1 nsto= 1
    2       1.625000000000        1.000000000000
  2 C     2 shells
 l=0 nsto= 1
    2       1.625000000000        1.000000000000
 l=1 nsto= 1
    2       1.625000000000        1.000000000000
  3 C     2 shells
 l=0 nsto= 1
    2       1.625000000000        1.000000000000
 l=1 nsto= 1
    2       1.625000000000        1.000000000000
  4 S     2 shells
 l=0 nsto= 1
    3       1.925000000000        1.000000000000
 l=1 nsto= 1
    3       1.925000000000        1.000000000000
  5 H     1 shells
 l=0 nsto= 1
    1       1.200000000000        1.000000000000
  6 C     2 shells
 l=0 nsto= 1
    2       1.625000000000        1.000000000000
 l=1 nsto= 1
    2       1.625000000000        1.000000000000
  7 C     2 shells
 l=0 nsto= 1
    2       1.625000000000        1.000000000000
 l=1 nsto= 1
    2       1.625000000000        1.000000000000
  8 C     2 shells
 l=0 nsto= 1
    2       1.625000000000        1.000000000000
 l=1 nsto= 1
    2       1.625000000000        1.000000000000
  9 H     1 shells
 l=0 nsto= 1
    1       1.200000000000        1.000000000000
 10 H     1 shells
 l=0 nsto= 1
    1       1.200000000000        1.000000000000
 11 H     1 shells
 l=0 nsto= 1
    1       1.200000000000        1.000000000000
 12 H     1 shells
 l=0 nsto= 1
    1       1.200000000000        1.000000000000
 13 H     1 shells
 l=0 nsto= 1
    1       1.200000000000        1.000000000000
 14 H     1 shells
 l=0 nsto= 1
    1       1.200000000000        1.000000000000
 15 C     2 shells
 l=0 nsto= 1
    2       1.625000000000        1.000000000000
 l=1 nsto= 1
    2       1.625000000000        1.000000000000
 16 C     2 shells
 l=0 nsto= 1
    2       1.625000000000        1.000000000000
 l=1 nsto= 1
    2       1.625000000000        1.000000000000
 17 C     2 shells
 l=0 nsto= 1
    2       1.625000000000        1.000000000000
 l=1 nsto= 1
    2       1.625000000000        1.000000000000
 18 H     1 shells
 l=0 nsto= 1
    1       1.200000000000        1.000000000000
 19 H     1 shells
 l=0 nsto= 1
    1       1.200000000000        1.000000000000
 20 H     1 shells
 l=0 nsto= 1
    1       1.200000000000        1.000000000000
 21 H     1 shells
 l=0 nsto= 1
    1       1.200000000000        1.000000000000
 22 H     1 shells
 l=0 nsto= 1
    1       1.200000000000        1.000000000000
 23 H     1 shells
 l=0 nsto= 1
    1       1.200000000000        1.000000000000
 24 H     1 shells
 l=0 nsto= 1
    1       1.200000000000        1.000000000000
 25 C     2 shells
 l=0 nsto= 1
    2       1.625000000000        1.000000000000
 l=1 nsto= 1
    2       1.625000000000        1.000000000000
 26 C     2 shells
 l=0 nsto= 1
    2       1.625000000000        1.000000000000
 l=1 nsto= 1
    2       1.625000000000        1.000000000000
 27 C     2 shells
 l=0 nsto= 1
    2       1.625000000000        1.000000000000
 l=1 nsto= 1
    2       1.625000000000        1.000000000000
 28 C     2 shells
 l=0 nsto= 1
    2       1.625000000000        1.000000000000
 l=1 nsto= 1
    2       1.625000000000        1.000000000000
 29 S     2 shells
 l=0 nsto= 1
    3       1.925000000000        1.000000000000
 l=1 nsto= 1
    3       1.925000000000        1.000000000000
 30 H     1 shells
 l=0 nsto= 1
    1       1.200000000000        1.000000000000
 31 C     2 shells
 l=0 nsto= 1
    2       1.625000000000        1.000000000000
 l=1 nsto= 1
    2       1.625000000000        1.000000000000
 32 C     2 shells
 l=0 nsto= 1
    2       1.625000000000        1.000000000000
 l=1 nsto= 1
    2       1.625000000000        1.000000000000
 33 C     2 shells
 l=0 nsto= 1
    2       1.625000000000        1.000000000000
 l=1 nsto= 1
    2       1.625000000000        1.000000000000
 34 H     1 shells
 l=0 nsto= 1
    1       1.200000000000        1.000000000000
 35 H     1 shells
 l=0 nsto= 1
    1       1.200000000000        1.000000000000
 36 H     1 shells
 l=0 nsto= 1
    1       1.200000000000        1.000000000000
 37 H     1 shells
 l=0 nsto= 1
    1       1.200000000000        1.000000000000
 38 H     1 shells
 l=0 nsto= 1
    1       1.200000000000        1.000000000000
 39 H     1 shells
 l=0 nsto= 1
    1       1.200000000000        1.000000000000
 40 C     2 shells
 l=0 nsto= 1
    2       1.625000000000        1.000000000000
 l=1 nsto= 1
    2       1.625000000000        1.000000000000
 41 C     2 shells
 l=0 nsto= 1
    2       1.625000000000        1.000000000000
 l=1 nsto= 1
    2       1.625000000000        1.000000000000
 42 C     2 shells
 l=0 nsto= 1
    2       1.625000000000        1.000000000000
 l=1 nsto= 1
    2       1.625000000000        1.000000000000
 43 H     1 shells
 l=0 nsto= 1
    1       1.200000000000        1.000000000000
 44 H     1 shells
 l=0 nsto= 1
    1       1.200000000000        1.000000000000
 45 H     1 shells
 l=0 nsto= 1
    1       1.200000000000        1.000000000000
 46 H     1 shells
 l=0 nsto= 1
    1       1.200000000000        1.000000000000
 47 H     1 shells
 l=0 nsto= 1
    1       1.200000000000        1.000000000000
 48 H     1 shells
 l=0 nsto= 1
    1       1.200000000000        1.000000000000
 49 H     1 shells
 l=0 nsto= 1
    1       1.200000000000        1.000000000000
 50 H     1 shells
 l=0 nsto= 1
    1       1.200000000000        1.000000000000
 51 H     1 shells
 l=0 nsto= 1
    1       1.200000000000        1.000000000000
 52 H     1 shells
 l=0 nsto= 1
    1       1.200000000000        1.000000000000
 53 H     1 shells
 l=0 nsto= 1
    1       1.200000000000        1.000000000000
------------------------------------------------------------------------------
                           ORCA NDO INTEGRAL CALCULATION
------------------------------------------------------------------------------

--------------
NDO PARAMETERS
--------------

Gamma integral treatment              ... Mataga-Nishimoto
Nuclear repulsuion treatment          ... Direct (ZA*ZB/RAB)
Interaction factors:
s-s (sigma) =    1.0000
s-p (sigma) =    1.0000
s-d (sigma) =    1.0000
p-p (sigma) =    1.2670  p-p(pi) =    0.5850
p-d (sigma) =    1.0000  p-d(pi) =    1.0000
d-d (sigma) =    1.0000  d-d(pi) =    1.0000 d-d (delta) =    1.0000

fGamma parameter for Mataga-Nishimoto gamma integrals:    1.2000

--------------------------
Parameters for Element H :
--------------------------
 One-electron parameters (in eV)
  U(s)  =   -13.060000 Beta(s) =    12.000000 Neff(s) =     1.000000
 One-center electron repulsion parameters (in eV)
  G(s,s)=    12.850000
--------------------------
Parameters for Element C :
--------------------------
 One-electron parameters (in eV)
  U(s)  =   -50.870766 Beta(s) =    17.000000 Neff(s) =     2.000000
  U(p)  =   -41.599980 Beta(p) =    17.000000 Neff(p) =     2.000000 
 One-center electron repulsion parameters (in eV)
  G(s,s)=    11.110000
  G(s,p)=    11.110000 G(p,p)  =    11.110000
 Slater-Condon parameters (in eV)
 F2(p,p)=     4.5098 G1(s,p)=    6.8977
--------------------------
Parameters for Element S :
--------------------------
 One-electron parameters (in eV)
  U(s)  =   -69.509597 Beta(s) =    15.000000 Neff(s) =     2.000000
  U(p)  =   -60.725746 Beta(p) =    15.000000 Neff(p) =     4.000000 
 One-center electron repulsion parameters (in eV)
  G(s,s)=    10.090000
  G(s,p)=    10.090000 G(p,p)  =    10.090000
 Slater-Condon parameters (in eV)
 F2(p,p)=     4.5377 G1(s,p)=    3.0756

 Number of atoms                    ....   54
 Number of basis functions          ....  120

 Overlap integrals                  .... done
 One electron matrix                .... done
 Nuclear repulsion                  .... done
 Integral list                      .... done
 Electron-electron repulsion        .... done
-------------------------------------------------------------------------------
                                 ORCA SCF
-------------------------------------------------------------------------------

------------
SCF SETTINGS
------------
Hamiltonian:
 ZDO-Hamiltonian        Method          .... INDO


General Settings:
 Integral files         IntName         .... /Users/mattyjones/GoogleDrive/Boise/Code/MorphCT/tests/output_EZ/donor_polymer/chromophores/input_orca/pair/00010-00026
 Hartree-Fock type      HFTyp           .... RHF
 Total Charge           Charge          ....    0
 Multiplicity           Mult            ....    1
 Number of Electrons    NEL             ....  124
 Basis Dimension        Dim             ....  120
 Nuclear Repulsion      ENuc            ....    641.1778563290 Eh

Convergence Acceleration:
 DIIS                   CNVDIIS         .... on
   Start iteration      DIISMaxIt       ....    12
   Startup error        DIISStart       ....  0.200000
   # of expansion vecs  DIISMaxEq       ....     5
   Bias factor          DIISBfac        ....   1.050
   Max. coefficient     DIISMaxC        ....  10.000
 Newton-Raphson         CNVNR           .... off
 SOSCF                  CNVSOSCF        .... on
   Start iteration      SOSCFMaxIt      ....   150
   Startup grad/error   SOSCFStart      ....  0.003300
 Level Shifting         CNVShift        .... on
   Level shift para.    LevelShift      ....    0.2500
   Turn off err/grad.   ShiftErr        ....    0.0010
 Zerner damping         CNVZerner       .... off
 Static damping         CNVDamp         .... on
   Fraction old density DampFac         ....    0.7000
   Max. Damping (<1)    DampMax         ....    0.9800
   Min. Damping (>=0)   DampMin         ....    0.0000
   Turn off err/grad.   DampErr         ....    0.1000
 Fernandez-Rico         CNVRico         .... off

SCF Procedure:
 Maximum # iterations   MaxIter         ....   125
 SCF integral mode      SCFMode         .... Conventional
 Integral Buffer length BufferLength    .... 1048576
 Integral index format  IndFormat       ....     0
 Integral value format  ValFormat       ....     0
 Integral Storage       Thresh          ....  1.000e-08 Eh

Convergence Tolerance:
 Convergence Check Mode ConvCheckMode   .... Total+1el-Energy
 Energy Change          TolE            ....  1.000e-06 Eh
 1-El. energy change                    ....  1.000e-03 Eh
 Orbital Gradient       TolG            ....  5.000e-05
 Orbital Rotation angle TolX            ....  5.000e-05
 DIIS Error             TolErr          ....  1.000e-06


Diagonalization of the overlap matrix:
Smallest eigenvalue                        ... 1.698e-01
Time for diagonalization                   ...    0.003 sec
Threshold for overlap eigenvalues          ... 1.000e-08
Number of eigenvalues below threshold      ... 0
Time for construction of square roots      ...    0.001 sec
Total time needed                          ...    0.004 sec

-------------------------------
INITIAL GUESS: EXTENDED HUECKEL
-------------------------------
EHT matrix was read from disk
EHT matrix was diagonalized
Initial density was built
                      ------------------
                      INITIAL GUESS DONE
                      ------------------

 InCore treatment chosen:
   Memory dedicated               ...    1024 MB
   Memory needed                  ...      0 MB
   Number of tiny    integrals    ...       0
   Number of small   integrals    ...       0
   Number of regular integrals    ...    7392

--------------
SCF ITERATIONS
--------------
ITER       Energy         Delta-E        Max-DP      RMS-DP      [F,P]     Damp
  0    -21.4633497680   0.000000000000 0.03979289  0.00143886  0.0997811 0.7000
  1    -21.5049023038  -0.041552535803 0.03661138  0.00135401  0.0712331 0.7000
                               ***Turning on DIIS***
  2    -21.5356541357  -0.030751831870 0.08989005  0.00347203  0.0465341 0.0000
  3    -21.6169708352  -0.081316699504 0.01517913  0.00071172  0.0201934 0.0000
  4    -21.6008533808   0.016117454344 0.00947268  0.00048708  0.0060759 0.0000
  5    -21.6178504713  -0.016997090508 0.00624630  0.00032877  0.0034453 0.0000
  6    -21.6205313434  -0.002680872089 0.00423130  0.00023381  0.0017795 0.0000
                      *** Initiating the SOSCF procedure ***
                           *** Shutting down DIIS ***
                      *** Re-Reading the Fockian *** 
                      *** Removing any level shift *** 
ITER      Energy       Delta-E        Grad      Rot      Max-DP    RMS-DP
  7    -21.61635539   0.0041759580  0.003000  0.003000  0.004204  0.000220
  8    -21.61455947   0.0017959126  0.000273  0.000716  0.000456  0.000023
  9    -21.61456110  -0.0000016241  0.000138  0.000553  0.000411  0.000019
                 **** Energy Check signals convergence ****
              ***Rediagonalizing the Fockian in SOSCF/NRSCF***

               *****************************************************
               *                     SUCCESS                       *
               *           SCF CONVERGED AFTER  10 CYCLES          *
               *****************************************************


----------------
TOTAL SCF ENERGY
----------------

Total Energy       :          -21.61456171 Eh            -588.16213 eV

Components:
Nuclear Repulsion  :          641.17785633 Eh           17447.33648 eV
Electronic Energy  :         -662.79241804 Eh          -18035.49860 eV

One Electron Energy:        -1235.16197149 Eh          -33610.46597 eV
Two Electron Energy:          572.36955345 Eh           15574.96737 eV


---------------
SCF CONVERGENCE
---------------

  Last Energy change         ...   -6.1628e-07  Tolerance :   1.0000e-06
  Last MAX-Density change    ...    3.4867e-05  Tolerance :   1.0000e-05
  Last RMS-Density change    ...    2.1529e-06  Tolerance :   1.0000e-06
  Last Orbital Gradient      ...    1.3748e-05  Tolerance :   5.0000e-05
  Last Orbital Rotation      ...    5.4832e-05  Tolerance :   5.0000e-05

             **** THE GBW FILE WAS UPDATED (/Users/mattyjones/GoogleDrive/Boise/Code/MorphCT/tests/output_EZ/donor_polymer/chromophores/input_orca/pair/00010-00026.gbw) ****
             **** DENSITY FILE WAS UPDATED (/Users/mattyjones/GoogleDrive/Boise/Code/MorphCT/tests/output_EZ/donor_polymer/chromophores/input_orca/pair/00010-00026.scfp.tmp) ****
             **** ENERGY FILE WAS UPDATED (/Users/mattyjones/GoogleDrive/Boise/Code/MorphCT/tests/output_EZ/donor_polymer/chromophores/input_orca/pair/00010-00026.en.tmp) ****
----------------
ORBITAL ENERGIES
----------------

  NO   OCC          E(Eh)            E(eV) 
   0   2.0000      -1.556287       -42.3487 
   1   2.0000      -1.556177       -42.3457 
   2   2.0000      -1.409594       -38.3570 
   3   2.0000      -1.393199       -37.9109 
   4   2.0000      -1.288985       -35.0751 
   5   2.0000      -1.285356       -34.9763 
   6   2.0000      -1.179962       -32.1084 
   7   2.0000      -1.174547       -31.9610 
   8   2.0000      -1.112284       -30.2668 
   9   2.0000      -1.111053       -30.2333 
  10   2.0000      -1.057013       -28.7628 
  11   2.0000      -1.045971       -28.4623 
  12   2.0000      -0.968424       -26.3522 
  13   2.0000      -0.965347       -26.2684 
  14   2.0000      -0.910513       -24.7763 
  15   2.0000      -0.897580       -24.4244 
  16   2.0000      -0.853548       -23.2262 
  17   2.0000      -0.835508       -22.7353 
  18   2.0000      -0.829423       -22.5697 
  19   2.0000      -0.828526       -22.5453 
  20   2.0000      -0.776795       -21.1377 
  21   2.0000      -0.768082       -20.9006 
  22   2.0000      -0.737137       -20.0585 
  23   2.0000      -0.732469       -19.9315 
  24   2.0000      -0.701427       -19.0868 
  25   2.0000      -0.693595       -18.8737 
  26   2.0000      -0.690008       -18.7761 
  27   2.0000      -0.678026       -18.4500 
  28   2.0000      -0.639059       -17.3897 
  29   2.0000      -0.633217       -17.2307 
  30   2.0000      -0.613069       -16.6824 
  31   2.0000      -0.607029       -16.5181 
  32   2.0000      -0.599767       -16.3205 
  33   2.0000      -0.597314       -16.2537 
  34   2.0000      -0.581811       -15.8319 
  35   2.0000      -0.577436       -15.7128 
  36   2.0000      -0.574346       -15.6287 
  37   2.0000      -0.559323       -15.2199 
  38   2.0000      -0.545841       -14.8531 
  39   2.0000      -0.544223       -14.8091 
  40   2.0000      -0.531646       -14.4668 
  41   2.0000      -0.528200       -14.3731 
  42   2.0000      -0.521058       -14.1787 
  43   2.0000      -0.519253       -14.1296 
  44   2.0000      -0.504297       -13.7226 
  45   2.0000      -0.503471       -13.7001 
  46   2.0000      -0.497617       -13.5409 
  47   2.0000      -0.497533       -13.5386 
  48   2.0000      -0.492876       -13.4118 
  49   2.0000      -0.489645       -13.3239 
  50   2.0000      -0.479818       -13.0565 
  51   2.0000      -0.476631       -12.9698 
  52   2.0000      -0.472772       -12.8648 
  53   2.0000      -0.464296       -12.6341 
  54   2.0000      -0.464257       -12.6331 
  55   2.0000      -0.459961       -12.5162 
  56   2.0000      -0.437797       -11.9131 
  57   2.0000      -0.437342       -11.9007 
  58   2.0000      -0.356892        -9.7115 
  59   2.0000      -0.356595        -9.7034 
  60   2.0000      -0.305403        -8.3104 
  61   2.0000      -0.304703        -8.2914 
  62   0.0000       0.007558         0.2057 
  63   0.0000       0.007915         0.2154 
  64   0.0000       0.063113         1.7174 
  65   0.0000       0.068080         1.8525 
  66   0.0000       0.075621         2.0577 
  67   0.0000       0.078059         2.1241 
  68   0.0000       0.084221         2.2918 
  69   0.0000       0.090166         2.4535 
  70   0.0000       0.103089         2.8052 
  71   0.0000       0.103630         2.8199 
  72   0.0000       0.106895         2.9088 
  73   0.0000       0.107880         2.9356 
  74   0.0000       0.121921         3.3176 
  75   0.0000       0.123296         3.3551 
  76   0.0000       0.141906         3.8615 
  77   0.0000       0.143415         3.9025 
  78   0.0000       0.156492         4.2584 
  79   0.0000       0.158735         4.3194 
  80   0.0000       0.164020         4.4632 
  81   0.0000       0.164940         4.4882 
  82   0.0000       0.169931         4.6241 
  83   0.0000       0.173394         4.7183 
  84   0.0000       0.205498         5.5919 
  85   0.0000       0.205831         5.6010 
  86   0.0000       0.232362         6.3229 
  87   0.0000       0.233125         6.3437 
  88   0.0000       0.233791         6.3618 
  89   0.0000       0.234179         6.3723 
  90   0.0000       0.235642         6.4121 
  91   0.0000       0.236824         6.4443 
  92   0.0000       0.237424         6.4606 
  93   0.0000       0.238812         6.4984 
  94   0.0000       0.239058         6.5051 
  95   0.0000       0.241018         6.5584 
  96   0.0000       0.241718         6.5775 
  97   0.0000       0.242085         6.5875 
  98   0.0000       0.243335         6.6215 
  99   0.0000       0.244254         6.6465 
 100   0.0000       0.244397         6.6504 
 101   0.0000       0.256039         6.9672 
 102   0.0000       0.259081         7.0500 
 103   0.0000       0.260340         7.0842 
 104   0.0000       0.266426         7.2498 
 105   0.0000       0.267099         7.2681 
 106   0.0000       0.274533         7.4704 
 107   0.0000       0.283673         7.7191 
 108   0.0000       0.304959         8.2984 
 109   0.0000       0.307589         8.3699 
 110   0.0000       0.309841         8.4312 
 111   0.0000       0.310404         8.4465 
 112   0.0000       0.339426         9.2362 
 113   0.0000       0.340947         9.2776 
 114   0.0000       0.353700         9.6247 
 115   0.0000       0.361970         9.8497 
 116   0.0000       0.409282        11.1371 
 117   0.0000       0.414740        11.2856 
 118   0.0000       0.429001        11.6737 
 119   0.0000       0.431080        11.7303 
-------
TIMINGS
-------

Total SCF time: 0 days 0 hours 0 min 0 sec 

Total time                  ....       0.137 sec
Sum of individual times     ....       0.108 sec  ( 79.2%)

Fock matrix formation       ....       0.047 sec  ( 34.7%)
Diagonalization             ....       0.028 sec  ( 20.8%)
Density matrix formation    ....       0.005 sec  (  4.0%)
Population analysis         ....       0.000 sec  (  0.0%)
Initial guess               ....       0.003 sec  (  2.2%)
Orbital Transformation      ....       0.000 sec  (  0.0%)
Orbital Orthonormalization  ....       0.000 sec  (  0.0%)
DIIS solution               ....       0.019 sec  ( 14.0%)
SOSCF solution              ....       0.005 sec  (  3.5%)

-------------------------   --------------------
FINAL SINGLE POINT ENERGY       -21.614561713221
-------------------------   --------------------


                            ***************************************
                            *     ORCA property calculations      *
                            ***************************************

                                    ---------------------
                                    Active property flags
                                    ---------------------
   (+) Dipole Moment


------------------------------------------------------------------------------
                       ORCA ELECTRIC PROPERTIES CALCULATION
------------------------------------------------------------------------------

Dipole Moment Calculation                       ... on
Quadrupole Moment Calculation                   ... off
Polarizability Calculation                      ... off
GBWName                                         ... /Users/mattyjones/GoogleDrive/Boise/Code/MorphCT/tests/output_EZ/donor_polymer/chromophores/input_orca/pair/00010-00026.gbw
Electron density file                           ... /Users/mattyjones/GoogleDrive/Boise/Code/MorphCT/tests/output_EZ/donor_polymer/chromophores/input_orca/pair/00010-00026.scfp.tmp

-------------
DIPOLE MOMENT
-------------
                                X             Y             Z
Electronic contribution:      6.49920      23.65446     -74.74948
Nuclear contribution   :     -4.83976     -13.45422      39.88444
                        -----------------------------------------
Total Dipole Moment    :      1.65944      10.20025     -34.86504
                        -----------------------------------------
Magnitude (a.u.)       :     36.36440
Magnitude (Debye)      :     92.43096


Timings for individual modules:

Sum of individual times         ...        0.240 sec (=   0.004 min)
STO integral calculation        ...        0.039 sec (=   0.001 min)  16.3 %
SCF iterations                  ...        0.201 sec (=   0.003 min)  83.7 %
                             ****ORCA TERMINATED NORMALLY****
TOTAL RUN TIME: 0 days 0 hours 0 minutes 0 seconds 816 msec

