
                                 *****************
                                 * O   R   C   A *
                                 *****************

           --- An Ab Initio, DFT and Semiempirical electronic structure package ---

                  #######################################################
                  #                        -***-                        #
                  #  Department of molecular theory and spectroscopy    #
                  #              Directorship: Frank Neese              #
                  # Max Planck Institute for Chemical Energy Conversion #
                  #                  D-45470 Muelheim/Ruhr              #
                  #                       Germany                       #
                  #                                                     #
                  #                  All rights reserved                #
                  #                        -***-                        #
                  #######################################################


                         Program Version 3.0.3 - RELEASE   -


 With contributions from (in alphabetic order):
   Ute Becker             : Parallelization
   Dmytro Bykov           : SCF Hessian
   Dmitry Ganyushin       : Spin-Orbit,Spin-Spin,Magnetic field MRCI
   Andreas Hansen         : Spin unrestricted coupled pair/coupled cluster methods
   Dimitrios Liakos       : Extrapolation schemes; parallel MDCI
   Robert Izsak           : Overlap fitted RIJCOSX, COSX-SCS-MP3
   Christian Kollmar      : KDIIS, OOCD, Brueckner-CCSD(T), CCSD density
   Simone Kossmann        : Meta GGA functionals, TD-DFT gradient, OOMP2, MP2 Hessian
   Taras Petrenko         : DFT Hessian,TD-DFT gradient, ASA and ECA modules, normal mode analysis, Resonance Raman, ABS, FL, XAS/XES, NRVS
   Christoph Reimann      : Effective Core Potentials
   Michael Roemelt        : Restricted open shell CIS
   Christoph Riplinger    : Improved optimizer, TS searches, QM/MM, DLPNO-CCSD
   Barbara Sandhoefer     : DKH picture change effects
   Igor Schapiro          : Molecular dynamics
   Kantharuban Sivalingam : CASSCF convergence, NEVPT2
   Boris Wezisla          : Elementary symmetry handling
   Frank Wennmohs         : Technical directorship


 We gratefully acknowledge several colleagues who have allowed us to
 interface, adapt or use parts of their codes:
   Stefan Grimme, W. Hujo, H. Kruse, T. Risthaus : VdW corrections, initial TS optimization,
                                                   DFT functionals, gCP
   Ed Valeev                                     : LibInt (2-el integral package), F12 methods
   Garnet Chan, S. Sharma, R. Olivares           : DMRG
   Ulf Ekstrom                                   : XCFun DFT Library
   Mihaly Kallay                                 : mrcc  (arbitrary order and MRCC methods)
   Andreas Klamt, Michael Diedenhofen            : otool_cosmo (COSMO solvation model)
   Frank Weinhold                                : gennbo (NPA and NBO analysis)
   Christopher J. Cramer and Donald G. Truhlar   : smd solvation model


 Your calculation uses the libint2 library for the computation of 2-el integrals
 For citations please refer to: http://libint.valeyev.net

 This ORCA versions uses:
   CBLAS   interface :  Fast vector & matrix operations
   LAPACKE interface :  Fast linear algebra routines
   SCALAPACK package :  Parallel linear algebra routines


leaving
================================================================================
                                        WARNINGS
                       Please study these warnings very carefully!
================================================================================
Now building the actual basis set

WARNING: Direct SCF is incompatible with Method<>HF and Method<>DFT
  ===> : conventional SCF is chosen

WARNING: The NDO methods need Guess=HUECKEL or Guess=HCORE or Guess=MOREAD
  ===> : Guess is set to Hueckel

WARNING: The NDO methods need %rel::SOCType==1
  ===> : %rel::SOCType is set to 1

WARNING: The NDO methods cannot have frozencore=1
  ===> : %method FrozenCore=0 end


INFO   : the flag for use of LIBINT has been found!

================================================================================
                                       INPUT FILE
================================================================================
NAME = /Users/mattyjones/GoogleDrive/Boise/Code/MorphCT/tests/output_EZ/donor_polymer/chromophores/input_orca/pair/00020-00021.inp
|  1> # ================================================================
|  2> # Orca input file made by Matty Jones
|  3> # ================================================================
|  4> ! ZINDO/S 
|  5> ! NOPOP
|  6> ! NOMOPRINT
|  7> * xyz 0   1
|  8>  C  2.43759  -3.40278  -2.21846
|  9>  C  3.30958  -2.32343  -2.06836
| 10>  C  2.75190  -1.21720  -1.35455
| 11>  C  1.43290  -1.42409  -0.93892
| 12>  S  1.03173  -2.94346  -1.46901
| 13>  H  4.40274  -2.32253  -2.39455
| 14>  C  3.83722  -0.00907  -1.22189
| 15>  C  3.72652  1.62298  -1.68979
| 16>  C  5.28856  2.28275  -1.41468
| 17>  H  5.34754  2.48020  -0.27539
| 18>  H  6.05444  1.45452  -1.67854
| 19>  H  3.46796  1.69640  -2.80284
| 20>  H  2.95755  2.17297  -1.04495
| 21>  H  4.08735  0.07380  -0.07592
| 22>  H  4.82862  -0.35371  -1.74225
| 23>  C  5.75121  3.63818  -2.19660
| 24>  C  6.54150  3.39222  -3.68440
| 25>  C  8.22324  3.26120  -3.63629
| 26>  H  8.58406  3.26097  -2.53775
| 27>  H  8.69312  4.15679  -4.19970
| 28>  H  8.54395  2.27420  -4.14972
| 29>  H  6.12369  2.42443  -4.14910
| 30>  H  6.28151  4.28624  -4.36443
| 31>  H  4.82254  4.29193  -2.40943
| 32>  H  6.48086  4.23354  -1.52476
| 33>  C  0.31855  -0.62167  0.03394
| 34>  C  -0.85732  -1.21332  0.49782
| 35>  C  -1.66065  -0.35555  1.31216
| 36>  C  -1.11638  0.91986  1.49221
| 37>  S  0.31010  0.91913  0.64627
| 38>  H  -1.16294  -2.28740  0.26256
| 39>  C  -3.05040  -0.91366  1.93094
| 40>  C  -4.56518  -0.13103  1.82546
| 41>  C  -5.78816  -0.91604  2.71647
| 42>  H  -5.22605  -1.53896  3.51931
| 43>  H  -6.35450  -0.06323  3.26597
| 44>  H  -4.87309  -0.23188  0.70988
| 45>  H  -4.59969  0.96508  2.09496
| 46>  H  -2.88731  -1.06316  3.07924
| 47>  H  -3.25378  -1.97306  1.47831
| 48>  C  -6.90961  -1.88537  2.04405
| 49>  C  -7.81469  -2.69256  3.23394
| 50>  C  -9.08825  -1.83137  3.91831
| 51>  H  -8.67220  -1.12745  4.73810
| 52>  H  -9.83854  -2.57430  4.39334
| 53>  H  -9.62114  -1.20791  3.10337
| 54>  H  -7.09694  -3.00424  4.07963
| 55>  H  -8.25853  -3.63747  2.74262
| 56>  H  -7.64078  -1.26075  1.40394
| 57>  H  -6.40420  -2.67813  1.37562
| 58>  H  2.63291  -4.32230  -2.70830
| 59>  H  -1.52911  1.71969  2.05215
| 60> *
| 61> 
| 62>                          ****END OF INPUT****
================================================================================

                       ****************************
                       * Single Point Calculation *
                       ****************************

---------------------------------
CARTESIAN COORDINATES (ANGSTROEM)
---------------------------------
  C      2.437590   -3.402780   -2.218460
  C      3.309580   -2.323430   -2.068360
  C      2.751900   -1.217200   -1.354550
  C      1.432900   -1.424090   -0.938920
  S      1.031730   -2.943460   -1.469010
  H      4.402740   -2.322530   -2.394550
  C      3.837220   -0.009070   -1.221890
  C      3.726520    1.622980   -1.689790
  C      5.288560    2.282750   -1.414680
  H      5.347540    2.480200   -0.275390
  H      6.054440    1.454520   -1.678540
  H      3.467960    1.696400   -2.802840
  H      2.957550    2.172970   -1.044950
  H      4.087350    0.073800   -0.075920
  H      4.828620   -0.353710   -1.742250
  C      5.751210    3.638180   -2.196600
  C      6.541500    3.392220   -3.684400
  C      8.223240    3.261200   -3.636290
  H      8.584060    3.260970   -2.537750
  H      8.693120    4.156790   -4.199700
  H      8.543950    2.274200   -4.149720
  H      6.123690    2.424430   -4.149100
  H      6.281510    4.286240   -4.364430
  H      4.822540    4.291930   -2.409430
  H      6.480860    4.233540   -1.524760
  C      0.318550   -0.621670    0.033940
  C     -0.857320   -1.213320    0.497820
  C     -1.660650   -0.355550    1.312160
  C     -1.116380    0.919860    1.492210
  S      0.310100    0.919130    0.646270
  H     -1.162940   -2.287400    0.262560
  C     -3.050400   -0.913660    1.930940
  C     -4.565180   -0.131030    1.825460
  C     -5.788160   -0.916040    2.716470
  H     -5.226050   -1.538960    3.519310
  H     -6.354500   -0.063230    3.265970
  H     -4.873090   -0.231880    0.709880
  H     -4.599690    0.965080    2.094960
  H     -2.887310   -1.063160    3.079240
  H     -3.253780   -1.973060    1.478310
  C     -6.909610   -1.885370    2.044050
  C     -7.814690   -2.692560    3.233940
  C     -9.088250   -1.831370    3.918310
  H     -8.672200   -1.127450    4.738100
  H     -9.838540   -2.574300    4.393340
  H     -9.621140   -1.207910    3.103370
  H     -7.096940   -3.004240    4.079630
  H     -8.258530   -3.637470    2.742620
  H     -7.640780   -1.260750    1.403940
  H     -6.404200   -2.678130    1.375620
  H      2.632910   -4.322300   -2.708300
  H     -1.529110    1.719690    2.052150

----------------------------
CARTESIAN COORDINATES (A.U.)
----------------------------
  NO LB      ZA    FRAG    MASS        X           Y           Z
   0 C     4.0000    0    12.011          4.606377526785104         -6.430322293984556         -4.192281839058940
   1 C     4.0000    0    12.011          6.254199818303096         -4.390646391336654         -3.908633946357361
   2 C     4.0000    0    12.011          5.200337347937892         -2.300174650208948         -2.559728534703031
   3 C     4.0000    0    12.011          2.707788577295762         -2.691140090055915         -1.774301661661342
   4 S     6.0000    0    32.060          1.949687144150573         -5.562333286151848         -2.776026587991658
   5 H     1.0000    0     1.008          8.319972838860451         -4.388945637816125         -4.525043713981134
   6 C     4.0000    0    12.011          7.251294915605305         -0.017139816034666         -2.309037465777038
   7 C     4.0000    0    12.011          7.042102232580222          3.066987720831513         -3.193240323838792
   8 C     4.0000    0    12.011          9.993930042810575          4.313772332208737         -2.673357767135716
   9 H     1.0000    0     1.008         10.105386090189251          4.686898757351488         -0.520411680020574
  10 H     1.0000    0     1.008         11.441233494258181          2.748644456311139         -3.171980904832178
  11 H     1.0000    0     1.008          6.553494643393544          3.205731413584011         -5.296599997199841
  12 H     1.0000    0     1.008          5.588959527378798          4.106318197226862         -1.974669323641012
  13 H     1.0000    0     1.008          7.723972113483027          0.139461788683388         -0.143468008087301
  14 H     1.0000    0     1.008          9.124769404774835         -0.668415030829286         -3.292375356824301
  15 C     4.0000    0    12.011         10.868211838669243          6.875163825909619         -4.150972425771422
  16 C     4.0000    0    12.011         12.361643505045867          6.410366786010348         -6.962506967819460
  17 C     4.0000    0    12.011         15.539671533506594          6.162774867943986         -6.871592243516508
  18 H     1.0000    0     1.008         16.221522517148056          6.162340230933184         -4.795652496358656
  19 H     1.0000    0     1.008         16.427616049313514          7.855194696222520         -7.936282844629081
  20 H     1.0000    0     1.008         16.145725601916478          4.297615173763710         -7.841834332455697
  21 H     1.0000    0     1.008         11.572097029032228          4.581508730862700         -7.840662702252665
  22 H     1.0000    0     1.008         11.870333607487682          8.099819744258626         -8.247577430669928
  23 H     1.0000    0     1.008          9.113279869880593          8.110572285960638         -4.553162838853881
  24 H     1.0000    0     1.008         12.247050512284883          8.000231177000975         -2.881378819957768
  25 C     4.0000    0    12.011          0.601972259960615         -1.174786045674824          0.064137304985287
  26 C     4.0000    0    12.011         -1.620100009133367         -2.292842512809333          0.940743463988677
  27 C     4.0000    0    12.011         -3.138173704296327         -0.671892126915701          2.479623043886110
  28 C     4.0000    0    12.011         -2.109652461387007          1.738283481548803          2.819868234298631
  29 S     6.0000    0    32.060          0.586004074128980          1.736903981471040          1.221273308569287
  30 H     1.0000    0     1.008         -2.197638110182381         -4.322559558731471          0.496166493722364
  31 C     4.0000    0    12.011         -5.764420598913386         -1.726567179518491          3.648947781033902
  32 C     4.0000    0    12.011         -8.626939952054618         -0.247610815327702          3.449619468427888
  33 C     4.0000    0    12.011        -10.938037219317632         -1.731064727717223          5.133384351013063
  34 H     1.0000    0     1.008         -9.875803262179158         -2.908212931059450          6.650532080370400
  35 H     1.0000    0     1.008        -12.008264718002593         -0.119487383447841          6.171788861602790
  36 H     1.0000    0     1.008         -9.208805525950313         -0.438189695933660          1.341478787948018
  37 H     1.0000    0     1.008         -8.692154400936241          1.823736897324722          3.958900661519665
  38 H     1.0000    0     1.008         -5.456225163732169         -2.009081236539718          5.818920300615675
  39 H     1.0000    0     1.008         -6.148753100030290         -3.728543045794665          2.793601041037125
  40 C     4.0000    0    12.011        -13.057270592203619         -3.562832961111110          3.862694704041734
  41 C     4.0000    0    12.011        -14.767623921493065         -5.088200999151005          6.111260933533293
  42 C     4.0000    0    12.011        -17.174303536609816         -3.460787749879362          7.404532807804980
  43 H     1.0000    0     1.008        -16.388082978591878         -2.130571729689515          8.953711395132283
  44 H     1.0000    0     1.008        -18.592146157629593         -4.864721986553478          8.302209413201592
  45 H     1.0000    0     1.008        -18.181319696115111         -2.282619094424819          5.864519392227194
  46 H     1.0000    0     1.008        -13.411272988871088         -5.677190840571581          7.709383427729156
  47 H     1.0000    0     1.008        -15.606359968772676         -6.873822120354535          5.182800689415103
  48 H     1.0000    0     1.008        -14.438981649542821         -2.382472223341218          2.653062108457402
  49 H     1.0000    0     1.008        -12.102184106858481         -5.060932251038522          2.599545064344752
  50 H     1.0000    0     1.008          4.975478835262602         -8.167963268647826         -5.117945288498926
  51 H     1.0000    0     1.008         -2.889599128640325          3.249743135243037          3.878001485726497

--------------------------------
INTERNAL COORDINATES (ANGSTROEM)
--------------------------------
 C      0   0   0   0.000000     0.000     0.000
 C      1   0   0   1.395669     0.000     0.000
 C      2   1   0   1.429782   114.101     0.000
 C      3   2   1   1.398325   113.693     0.000
 S      1   2   3   1.658039   105.480     0.000
 H      2   1   3   1.140789   124.650   174.997
 C      3   2   1   1.629447   110.763   179.780
 C      7   3   2   1.701403   130.202   124.200
 C      8   7   3   1.717833   105.379   186.084
 H      9   8   7   1.157777   105.629   281.290
 H      9   8   7   1.158516   106.863    36.361
 H      8   7   3   1.145043   110.092   304.254
 H      8   7   3   1.144387   110.473    67.734
 H      7   3   2   1.175874   105.860   246.322
 H      7   3   2   1.171506   108.022   359.372
 C      9   8   7   1.631758   120.007   158.620
 C     16   9   8   1.702529   115.490   269.162
 C     17  16   9   1.687522   116.673   269.203
 H     18  17  16   1.156279   109.760     5.477
 H     18  17  16   1.157713   109.302   245.216
 H     18  17  16   1.157858   109.243   125.614
 H     17  16   9   1.152011   107.789    30.726
 H     17  16   9   1.152956   107.381   148.467
 H     16   9   8   1.155471   109.291    29.945
 H     16   9   8   1.156811   109.150   148.859
 C      4   3   2   1.682888   136.542   172.262
 C     26   4   3   1.395674   123.223   193.909
 C     27  26   4   1.429776   114.101   179.866
 C     28  27  26   1.398327   113.693     0.000
 S     26   4   3   1.658036   131.297    13.737
 H     27  26   4   1.141227   123.785     0.207
 C     28  27  26   1.620426   119.521   180.493
 C     32  28  27   1.708272   125.389   230.363
 C     33  32  28   1.704646   113.136   185.699
 H     34  33  32   1.161270   105.136    22.473
 H     34  33  32   1.161885   105.005   135.873
 H     33  32  28   1.161679   104.747    70.982
 H     33  32  28   1.129282   117.197   311.625
 H     32  28  27   1.169419   107.421   108.010
 H     32  28  27   1.169857   108.256   353.062
 C     34  33  32   1.627698   123.547   258.981
 C     41  34  33   1.698989   111.140   170.989
 C     42  41  34   1.682844   116.413    82.310
 H     43  42  41   1.157867   109.094   278.829
 H     43  42  41   1.157814   109.202   159.285
 H     43  42  41   1.156201   109.762    39.035
 H     42  41  34   1.152172   108.103   320.430
 H     42  41  34   1.153796   107.204   202.695
 H     41  34  33   1.155206   110.059   290.493
 H     41  34  33   1.153562   110.290    50.961
 H      1   2   3   1.060005   127.260   180.000
 H     29  28  27   1.060003   127.207   180.000

---------------------------
INTERNAL COORDINATES (A.U.)
---------------------------
 C      0   0   0   0.000000     0.000     0.000
 C      1   0   0   2.637433     0.000     0.000
 C      2   1   0   2.701896   114.101     0.000
 C      3   2   1   2.642451   113.693     0.000
 S      1   2   3   3.133239   105.480     0.000
 H      2   1   3   2.155779   124.650   174.997
 C      3   2   1   3.079208   110.763   179.780
 C      7   3   2   3.215186   130.202   124.200
 C      8   7   3   3.246234   105.379   186.084
 H      9   8   7   2.187881   105.629   281.290
 H      9   8   7   2.189278   106.863    36.361
 H      8   7   3   2.163818   110.092   304.254
 H      8   7   3   2.162579   110.473    67.734
 H      7   3   2   2.222080   105.860   246.322
 H      7   3   2   2.213825   108.022   359.372
 C      9   8   7   3.083576   120.007   158.620
 C     16   9   8   3.217313   115.490   269.162
 C     17  16   9   3.188954   116.673   269.203
 H     18  17  16   2.185051   109.760     5.477
 H     18  17  16   2.187761   109.302   245.216
 H     18  17  16   2.188034   109.243   125.614
 H     17  16   9   2.176985   107.789    30.726
 H     17  16   9   2.178771   107.381   148.467
 H     16   9   8   2.183524   109.291    29.945
 H     16   9   8   2.186056   109.150   148.859
 C      4   3   2   3.180197   136.542   172.262
 C     26   4   3   2.637441   123.223   193.909
 C     27  26   4   2.701884   114.101   179.866
 C     28  27  26   2.642455   113.693     0.000
 S     26   4   3   3.133234   131.297    13.737
 H     27  26   4   2.156606   123.785     0.207
 C     28  27  26   3.062161   119.521   180.493
 C     32  28  27   3.228167   125.389   230.363
 C     33  32  28   3.221315   113.136   185.699
 H     34  33  32   2.194483   105.136    22.473
 H     34  33  32   2.195644   105.005   135.873
 H     33  32  28   2.195255   104.747    70.982
 H     33  32  28   2.134034   117.197   311.625
 H     32  28  27   2.209882   107.421   108.010
 H     32  28  27   2.210710   108.256   353.062
 C     34  33  32   3.075903   123.547   258.981
 C     41  34  33   3.210624   111.140   170.989
 C     42  41  34   3.180115   116.413    82.310
 H     43  42  41   2.188052   109.094   278.829
 H     43  42  41   2.187952   109.202   159.285
 H     43  42  41   2.184904   109.762    39.035
 H     42  41  34   2.177290   108.103   320.430
 H     42  41  34   2.180358   107.204   202.695
 H     41  34  33   2.183023   110.059   290.493
 H     41  34  33   2.179917   110.290    50.961
 H      1   2   3   2.003119   127.260   180.000
 H     29  28  27   2.003116   127.207   180.000

----------------------------
SLATER BASIS SET DIM= 118
----------------------------
  0 C     2 shells
 l=0 nsto= 1
    2       1.625000000000        1.000000000000
 l=1 nsto= 1
    2       1.625000000000        1.000000000000
  1 C     2 shells
 l=0 nsto= 1
    2       1.625000000000        1.000000000000
 l=1 nsto= 1
    2       1.625000000000        1.000000000000
  2 C     2 shells
 l=0 nsto= 1
    2       1.625000000000        1.000000000000
 l=1 nsto= 1
    2       1.625000000000        1.000000000000
  3 C     2 shells
 l=0 nsto= 1
    2       1.625000000000        1.000000000000
 l=1 nsto= 1
    2       1.625000000000        1.000000000000
  4 S     2 shells
 l=0 nsto= 1
    3       1.925000000000        1.000000000000
 l=1 nsto= 1
    3       1.925000000000        1.000000000000
  5 H     1 shells
 l=0 nsto= 1
    1       1.200000000000        1.000000000000
  6 C     2 shells
 l=0 nsto= 1
    2       1.625000000000        1.000000000000
 l=1 nsto= 1
    2       1.625000000000        1.000000000000
  7 C     2 shells
 l=0 nsto= 1
    2       1.625000000000        1.000000000000
 l=1 nsto= 1
    2       1.625000000000        1.000000000000
  8 C     2 shells
 l=0 nsto= 1
    2       1.625000000000        1.000000000000
 l=1 nsto= 1
    2       1.625000000000        1.000000000000
  9 H     1 shells
 l=0 nsto= 1
    1       1.200000000000        1.000000000000
 10 H     1 shells
 l=0 nsto= 1
    1       1.200000000000        1.000000000000
 11 H     1 shells
 l=0 nsto= 1
    1       1.200000000000        1.000000000000
 12 H     1 shells
 l=0 nsto= 1
    1       1.200000000000        1.000000000000
 13 H     1 shells
 l=0 nsto= 1
    1       1.200000000000        1.000000000000
 14 H     1 shells
 l=0 nsto= 1
    1       1.200000000000        1.000000000000
 15 C     2 shells
 l=0 nsto= 1
    2       1.625000000000        1.000000000000
 l=1 nsto= 1
    2       1.625000000000        1.000000000000
 16 C     2 shells
 l=0 nsto= 1
    2       1.625000000000        1.000000000000
 l=1 nsto= 1
    2       1.625000000000        1.000000000000
 17 C     2 shells
 l=0 nsto= 1
    2       1.625000000000        1.000000000000
 l=1 nsto= 1
    2       1.625000000000        1.000000000000
 18 H     1 shells
 l=0 nsto= 1
    1       1.200000000000        1.000000000000
 19 H     1 shells
 l=0 nsto= 1
    1       1.200000000000        1.000000000000
 20 H     1 shells
 l=0 nsto= 1
    1       1.200000000000        1.000000000000
 21 H     1 shells
 l=0 nsto= 1
    1       1.200000000000        1.000000000000
 22 H     1 shells
 l=0 nsto= 1
    1       1.200000000000        1.000000000000
 23 H     1 shells
 l=0 nsto= 1
    1       1.200000000000        1.000000000000
 24 H     1 shells
 l=0 nsto= 1
    1       1.200000000000        1.000000000000
 25 C     2 shells
 l=0 nsto= 1
    2       1.625000000000        1.000000000000
 l=1 nsto= 1
    2       1.625000000000        1.000000000000
 26 C     2 shells
 l=0 nsto= 1
    2       1.625000000000        1.000000000000
 l=1 nsto= 1
    2       1.625000000000        1.000000000000
 27 C     2 shells
 l=0 nsto= 1
    2       1.625000000000        1.000000000000
 l=1 nsto= 1
    2       1.625000000000        1.000000000000
 28 C     2 shells
 l=0 nsto= 1
    2       1.625000000000        1.000000000000
 l=1 nsto= 1
    2       1.625000000000        1.000000000000
 29 S     2 shells
 l=0 nsto= 1
    3       1.925000000000        1.000000000000
 l=1 nsto= 1
    3       1.925000000000        1.000000000000
 30 H     1 shells
 l=0 nsto= 1
    1       1.200000000000        1.000000000000
 31 C     2 shells
 l=0 nsto= 1
    2       1.625000000000        1.000000000000
 l=1 nsto= 1
    2       1.625000000000        1.000000000000
 32 C     2 shells
 l=0 nsto= 1
    2       1.625000000000        1.000000000000
 l=1 nsto= 1
    2       1.625000000000        1.000000000000
 33 C     2 shells
 l=0 nsto= 1
    2       1.625000000000        1.000000000000
 l=1 nsto= 1
    2       1.625000000000        1.000000000000
 34 H     1 shells
 l=0 nsto= 1
    1       1.200000000000        1.000000000000
 35 H     1 shells
 l=0 nsto= 1
    1       1.200000000000        1.000000000000
 36 H     1 shells
 l=0 nsto= 1
    1       1.200000000000        1.000000000000
 37 H     1 shells
 l=0 nsto= 1
    1       1.200000000000        1.000000000000
 38 H     1 shells
 l=0 nsto= 1
    1       1.200000000000        1.000000000000
 39 H     1 shells
 l=0 nsto= 1
    1       1.200000000000        1.000000000000
 40 C     2 shells
 l=0 nsto= 1
    2       1.625000000000        1.000000000000
 l=1 nsto= 1
    2       1.625000000000        1.000000000000
 41 C     2 shells
 l=0 nsto= 1
    2       1.625000000000        1.000000000000
 l=1 nsto= 1
    2       1.625000000000        1.000000000000
 42 C     2 shells
 l=0 nsto= 1
    2       1.625000000000        1.000000000000
 l=1 nsto= 1
    2       1.625000000000        1.000000000000
 43 H     1 shells
 l=0 nsto= 1
    1       1.200000000000        1.000000000000
 44 H     1 shells
 l=0 nsto= 1
    1       1.200000000000        1.000000000000
 45 H     1 shells
 l=0 nsto= 1
    1       1.200000000000        1.000000000000
 46 H     1 shells
 l=0 nsto= 1
    1       1.200000000000        1.000000000000
 47 H     1 shells
 l=0 nsto= 1
    1       1.200000000000        1.000000000000
 48 H     1 shells
 l=0 nsto= 1
    1       1.200000000000        1.000000000000
 49 H     1 shells
 l=0 nsto= 1
    1       1.200000000000        1.000000000000
 50 H     1 shells
 l=0 nsto= 1
    1       1.200000000000        1.000000000000
 51 H     1 shells
 l=0 nsto= 1
    1       1.200000000000        1.000000000000
------------------------------------------------------------------------------
                           ORCA NDO INTEGRAL CALCULATION
------------------------------------------------------------------------------

--------------
NDO PARAMETERS
--------------

Gamma integral treatment              ... Mataga-Nishimoto
Nuclear repulsuion treatment          ... Direct (ZA*ZB/RAB)
Interaction factors:
s-s (sigma) =    1.0000
s-p (sigma) =    1.0000
s-d (sigma) =    1.0000
p-p (sigma) =    1.2670  p-p(pi) =    0.5850
p-d (sigma) =    1.0000  p-d(pi) =    1.0000
d-d (sigma) =    1.0000  d-d(pi) =    1.0000 d-d (delta) =    1.0000

fGamma parameter for Mataga-Nishimoto gamma integrals:    1.2000

--------------------------
Parameters for Element H :
--------------------------
 One-electron parameters (in eV)
  U(s)  =   -13.060000 Beta(s) =    12.000000 Neff(s) =     1.000000
 One-center electron repulsion parameters (in eV)
  G(s,s)=    12.850000
--------------------------
Parameters for Element C :
--------------------------
 One-electron parameters (in eV)
  U(s)  =   -50.870766 Beta(s) =    17.000000 Neff(s) =     2.000000
  U(p)  =   -41.599980 Beta(p) =    17.000000 Neff(p) =     2.000000 
 One-center electron repulsion parameters (in eV)
  G(s,s)=    11.110000
  G(s,p)=    11.110000 G(p,p)  =    11.110000
 Slater-Condon parameters (in eV)
 F2(p,p)=     4.5098 G1(s,p)=    6.8977
--------------------------
Parameters for Element S :
--------------------------
 One-electron parameters (in eV)
  U(s)  =   -69.509597 Beta(s) =    15.000000 Neff(s) =     2.000000
  U(p)  =   -60.725746 Beta(p) =    15.000000 Neff(p) =     4.000000 
 One-center electron repulsion parameters (in eV)
  G(s,s)=    10.090000
  G(s,p)=    10.090000 G(p,p)  =    10.090000
 Slater-Condon parameters (in eV)
 F2(p,p)=     4.5377 G1(s,p)=    3.0756

 Number of atoms                    ....   52
 Number of basis functions          ....  118

 Overlap integrals                  .... done
 One electron matrix                .... done
 Nuclear repulsion                  .... done
 Integral list                      .... done
 Electron-electron repulsion        .... done
-------------------------------------------------------------------------------
                                 ORCA SCF
-------------------------------------------------------------------------------

------------
SCF SETTINGS
------------
Hamiltonian:
 ZDO-Hamiltonian        Method          .... INDO


General Settings:
 Integral files         IntName         .... /Users/mattyjones/GoogleDrive/Boise/Code/MorphCT/tests/output_EZ/donor_polymer/chromophores/input_orca/pair/00020-00021
 Hartree-Fock type      HFTyp           .... RHF
 Total Charge           Charge          ....    0
 Multiplicity           Mult            ....    1
 Number of Electrons    NEL             ....  122
 Basis Dimension        Dim             ....  118
 Nuclear Repulsion      ENuc            ....    807.4978391140 Eh

Convergence Acceleration:
 DIIS                   CNVDIIS         .... on
   Start iteration      DIISMaxIt       ....    12
   Startup error        DIISStart       ....  0.200000
   # of expansion vecs  DIISMaxEq       ....     5
   Bias factor          DIISBfac        ....   1.050
   Max. coefficient     DIISMaxC        ....  10.000
 Newton-Raphson         CNVNR           .... off
 SOSCF                  CNVSOSCF        .... on
   Start iteration      SOSCFMaxIt      ....   150
   Startup grad/error   SOSCFStart      ....  0.003300
 Level Shifting         CNVShift        .... on
   Level shift para.    LevelShift      ....    0.2500
   Turn off err/grad.   ShiftErr        ....    0.0010
 Zerner damping         CNVZerner       .... off
 Static damping         CNVDamp         .... on
   Fraction old density DampFac         ....    0.7000
   Max. Damping (<1)    DampMax         ....    0.9800
   Min. Damping (>=0)   DampMin         ....    0.0000
   Turn off err/grad.   DampErr         ....    0.1000
 Fernandez-Rico         CNVRico         .... off

SCF Procedure:
 Maximum # iterations   MaxIter         ....   125
 SCF integral mode      SCFMode         .... Conventional
 Integral Buffer length BufferLength    .... 1048576
 Integral index format  IndFormat       ....     0
 Integral value format  ValFormat       ....     0
 Integral Storage       Thresh          ....  1.000e-08 Eh

Convergence Tolerance:
 Convergence Check Mode ConvCheckMode   .... Total+1el-Energy
 Energy Change          TolE            ....  1.000e-06 Eh
 1-El. energy change                    ....  1.000e-03 Eh
 Orbital Gradient       TolG            ....  5.000e-05
 Orbital Rotation angle TolX            ....  5.000e-05
 DIIS Error             TolErr          ....  1.000e-06


Diagonalization of the overlap matrix:
Smallest eigenvalue                        ... 1.675e-01
Time for diagonalization                   ...    0.003 sec
Threshold for overlap eigenvalues          ... 1.000e-08
Number of eigenvalues below threshold      ... 0
Time for construction of square roots      ...    0.001 sec
Total time needed                          ...    0.004 sec

-------------------------------
INITIAL GUESS: EXTENDED HUECKEL
-------------------------------
EHT matrix was read from disk
EHT matrix was diagonalized
Initial density was built
                      ------------------
                      INITIAL GUESS DONE
                      ------------------

 InCore treatment chosen:
   Memory dedicated               ...    1024 MB
   Memory needed                  ...      0 MB
   Number of tiny    integrals    ...       0
   Number of small   integrals    ...       0
   Number of regular integrals    ...    7153

--------------
SCF ITERATIONS
--------------
ITER       Energy         Delta-E        Max-DP      RMS-DP      [F,P]     Damp
  0    -10.5192887308   0.000000000000 0.04036975  0.00143134  0.0885154 0.7000
  1    -10.5589744034  -0.039685672518 0.03862337  0.00135458  0.0622094 0.7000
                               ***Turning on DIIS***
  2    -10.5886683219  -0.029693918501 0.10048622  0.00350522  0.0410682 0.0000
  3    -10.6712101233  -0.082541801430 0.01523485  0.00074991  0.0185641 0.0000
  4    -10.6484691940   0.022740929326 0.01282037  0.00051833  0.0076248 0.0000
  5    -10.6664862606  -0.018017066670 0.00871789  0.00034677  0.0044164 0.0000
  6    -10.6693617691  -0.002875508431 0.00695094  0.00025144  0.0024357 0.0000
                      *** Initiating the SOSCF procedure ***
                           *** Shutting down DIIS ***
                      *** Re-Reading the Fockian *** 
                      *** Removing any level shift *** 
ITER      Energy       Delta-E        Grad      Rot      Max-DP    RMS-DP
  7    -10.66654195   0.0028198214  0.003042  0.003042  0.004236  0.000145
  8    -10.66649533   0.0000466199  0.000856  0.002450  0.002221  0.000071
  9    -10.66651326  -0.0000179297  0.000354  0.002232  0.002494  0.000075
 10    -10.66651973  -0.0000064704  0.000033  0.000081  0.000119  0.000005
                 **** Energy Check signals convergence ****
              ***Rediagonalizing the Fockian in SOSCF/NRSCF***

               *****************************************************
               *                     SUCCESS                       *
               *           SCF CONVERGED AFTER  11 CYCLES          *
               *****************************************************


----------------
TOTAL SCF ENERGY
----------------

Total Energy       :          -10.66651980 Eh            -290.25076 eV

Components:
Nuclear Repulsion  :          807.49783911 Eh           21973.13329 eV
Electronic Energy  :         -818.16435891 Eh          -22263.38405 eV

One Electron Energy:        -1547.37803654 Eh          -42106.29702 eV
Two Electron Energy:          729.21367763 Eh           19842.91296 eV


---------------
SCF CONVERGENCE
---------------

  Last Energy change         ...   -7.1092e-08  Tolerance :   1.0000e-06
  Last MAX-Density change    ...    7.2965e-05  Tolerance :   1.0000e-05
  Last RMS-Density change    ...    1.9871e-06  Tolerance :   1.0000e-06
  Last Orbital Gradient      ...    1.4656e-05  Tolerance :   5.0000e-05
  Last Orbital Rotation      ...    5.2498e-05  Tolerance :   5.0000e-05

             **** THE GBW FILE WAS UPDATED (/Users/mattyjones/GoogleDrive/Boise/Code/MorphCT/tests/output_EZ/donor_polymer/chromophores/input_orca/pair/00020-00021.gbw) ****
             **** DENSITY FILE WAS UPDATED (/Users/mattyjones/GoogleDrive/Boise/Code/MorphCT/tests/output_EZ/donor_polymer/chromophores/input_orca/pair/00020-00021.scfp.tmp) ****
             **** ENERGY FILE WAS UPDATED (/Users/mattyjones/GoogleDrive/Boise/Code/MorphCT/tests/output_EZ/donor_polymer/chromophores/input_orca/pair/00020-00021.en.tmp) ****
----------------
ORBITAL ENERGIES
----------------

  NO   OCC          E(Eh)            E(eV) 
   0   2.0000      -1.566250       -42.6198 
   1   2.0000      -1.542608       -41.9765 
   2   2.0000      -1.399751       -38.0892 
   3   2.0000      -1.399392       -38.0794 
   4   2.0000      -1.292714       -35.1765 
   5   2.0000      -1.290435       -35.1145 
   6   2.0000      -1.182935       -32.1893 
   7   2.0000      -1.170381       -31.8477 
   8   2.0000      -1.143859       -31.1260 
   9   2.0000      -1.073879       -29.2217 
  10   2.0000      -1.061589       -28.8873 
  11   2.0000      -1.048268       -28.5248 
  12   2.0000      -0.951387       -25.8886 
  13   2.0000      -0.942688       -25.6518 
  14   2.0000      -0.892581       -24.2884 
  15   2.0000      -0.885686       -24.1007 
  16   2.0000      -0.871580       -23.7169 
  17   2.0000      -0.864133       -23.5143 
  18   2.0000      -0.852401       -23.1950 
  19   2.0000      -0.813511       -22.1367 
  20   2.0000      -0.770582       -20.9686 
  21   2.0000      -0.733243       -19.9526 
  22   2.0000      -0.721640       -19.6368 
  23   2.0000      -0.706280       -19.2189 
  24   2.0000      -0.694571       -18.9002 
  25   2.0000      -0.680609       -18.5203 
  26   2.0000      -0.666755       -18.1433 
  27   2.0000      -0.663958       -18.0672 
  28   2.0000      -0.655840       -17.8463 
  29   2.0000      -0.639322       -17.3968 
  30   2.0000      -0.618830       -16.8392 
  31   2.0000      -0.608837       -16.5673 
  32   2.0000      -0.585556       -15.9338 
  33   2.0000      -0.582202       -15.8425 
  34   2.0000      -0.567743       -15.4491 
  35   2.0000      -0.562498       -15.3063 
  36   2.0000      -0.555453       -15.1146 
  37   2.0000      -0.554310       -15.0835 
  38   2.0000      -0.544498       -14.8166 
  39   2.0000      -0.537182       -14.6175 
  40   2.0000      -0.530555       -14.4371 
  41   2.0000      -0.525914       -14.3109 
  42   2.0000      -0.518098       -14.0982 
  43   2.0000      -0.508569       -13.8389 
  44   2.0000      -0.506260       -13.7760 
  45   2.0000      -0.498688       -13.5700 
  46   2.0000      -0.495443       -13.4817 
  47   2.0000      -0.487159       -13.2563 
  48   2.0000      -0.483851       -13.1663 
  49   2.0000      -0.481818       -13.1109 
  50   2.0000      -0.474994       -12.9253 
  51   2.0000      -0.472441       -12.8558 
  52   2.0000      -0.467404       -12.7187 
  53   2.0000      -0.462619       -12.5885 
  54   2.0000      -0.459171       -12.4947 
  55   2.0000      -0.443581       -12.0704 
  56   2.0000      -0.430980       -11.7276 
  57   2.0000      -0.362255        -9.8575 
  58   2.0000      -0.358432        -9.7534 
  59   2.0000      -0.329710        -8.9719 
  60   2.0000      -0.281481        -7.6595 
  61   0.0000      -0.012834        -0.3492 
  62   0.0000       0.022548         0.6136 
  63   0.0000       0.035847         0.9754 
  64   0.0000       0.063269         1.7216 
  65   0.0000       0.069417         1.8889 
  66   0.0000       0.071971         1.9584 
  67   0.0000       0.081833         2.2268 
  68   0.0000       0.087978         2.3940 
  69   0.0000       0.089044         2.4230 
  70   0.0000       0.104725         2.8497 
  71   0.0000       0.106276         2.8919 
  72   0.0000       0.117122         3.1871 
  73   0.0000       0.121988         3.3195 
  74   0.0000       0.131856         3.5880 
  75   0.0000       0.142977         3.8906 
  76   0.0000       0.146477         3.9858 
  77   0.0000       0.155062         4.2194 
  78   0.0000       0.157346         4.2816 
  79   0.0000       0.163613         4.4521 
  80   0.0000       0.167546         4.5592 
  81   0.0000       0.169814         4.6209 
  82   0.0000       0.183105         4.9825 
  83   0.0000       0.203174         5.5286 
  84   0.0000       0.209370         5.6972 
  85   0.0000       0.231057         6.2874 
  86   0.0000       0.232372         6.3232 
  87   0.0000       0.234731         6.3874 
  88   0.0000       0.235487         6.4079 
  89   0.0000       0.236580         6.4377 
  90   0.0000       0.236603         6.4383 
  91   0.0000       0.237846         6.4721 
  92   0.0000       0.239058         6.5051 
  93   0.0000       0.239139         6.5073 
  94   0.0000       0.241826         6.5804 
  95   0.0000       0.242629         6.6023 
  96   0.0000       0.243945         6.6381 
  97   0.0000       0.245048         6.6681 
  98   0.0000       0.245705         6.6860 
  99   0.0000       0.252206         6.8629 
 100   0.0000       0.255539         6.9536 
 101   0.0000       0.260471         7.0878 
 102   0.0000       0.261416         7.1135 
 103   0.0000       0.265615         7.2277 
 104   0.0000       0.272653         7.4193 
 105   0.0000       0.276595         7.5265 
 106   0.0000       0.290741         7.9115 
 107   0.0000       0.299761         8.1569 
 108   0.0000       0.304986         8.2991 
 109   0.0000       0.322505         8.7758 
 110   0.0000       0.335263         9.1230 
 111   0.0000       0.339381         9.2350 
 112   0.0000       0.349043         9.4979 
 113   0.0000       0.352469         9.5912 
 114   0.0000       0.403178        10.9710 
 115   0.0000       0.414484        11.2787 
 116   0.0000       0.425750        11.5853 
 117   0.0000       0.467206        12.7133 
-------
TIMINGS
-------

Total SCF time: 0 days 0 hours 0 min 0 sec 

Total time                  ....       0.125 sec
Sum of individual times     ....       0.099 sec  ( 78.8%)

Fock matrix formation       ....       0.050 sec  ( 40.0%)
Diagonalization             ....       0.021 sec  ( 16.9%)
Density matrix formation    ....       0.005 sec  (  4.3%)
Population analysis         ....       0.000 sec  (  0.0%)
Initial guess               ....       0.003 sec  (  2.0%)
Orbital Transformation      ....       0.000 sec  (  0.0%)
Orbital Orthonormalization  ....       0.000 sec  (  0.0%)
DIIS solution               ....       0.012 sec  (  9.7%)
SOSCF solution              ....       0.007 sec  (  5.8%)

-------------------------   --------------------
FINAL SINGLE POINT ENERGY       -10.666519799015
-------------------------   --------------------


                            ***************************************
                            *     ORCA property calculations      *
                            ***************************************

                                    ---------------------
                                    Active property flags
                                    ---------------------
   (+) Dipole Moment


------------------------------------------------------------------------------
                       ORCA ELECTRIC PROPERTIES CALCULATION
------------------------------------------------------------------------------

Dipole Moment Calculation                       ... on
Quadrupole Moment Calculation                   ... off
Polarizability Calculation                      ... off
GBWName                                         ... /Users/mattyjones/GoogleDrive/Boise/Code/MorphCT/tests/output_EZ/donor_polymer/chromophores/input_orca/pair/00020-00021.gbw
Electron density file                           ... /Users/mattyjones/GoogleDrive/Boise/Code/MorphCT/tests/output_EZ/donor_polymer/chromophores/input_orca/pair/00020-00021.scfp.tmp

-------------
DIPOLE MOMENT
-------------
                                X             Y             Z
Electronic contribution:     39.55881     -57.58458     -23.35682
Nuclear contribution   :    -21.32664      31.49294      12.54346
                        -----------------------------------------
Total Dipole Moment    :     18.23217     -26.09164     -10.81336
                        -----------------------------------------
Magnitude (a.u.)       :     33.61717
Magnitude (Debye)      :     85.44807


Timings for individual modules:

Sum of individual times         ...        0.225 sec (=   0.004 min)
STO integral calculation        ...        0.052 sec (=   0.001 min)  23.3 %
SCF iterations                  ...        0.173 sec (=   0.003 min)  76.7 %
                             ****ORCA TERMINATED NORMALLY****
TOTAL RUN TIME: 0 days 0 hours 0 minutes 0 seconds 551 msec

