
                                 *****************
                                 * O   R   C   A *
                                 *****************

           --- An Ab Initio, DFT and Semiempirical electronic structure package ---

                  #######################################################
                  #                        -***-                        #
                  #  Department of molecular theory and spectroscopy    #
                  #              Directorship: Frank Neese              #
                  # Max Planck Institute for Chemical Energy Conversion #
                  #                  D-45470 Muelheim/Ruhr              #
                  #                       Germany                       #
                  #                                                     #
                  #                  All rights reserved                #
                  #                        -***-                        #
                  #######################################################


                         Program Version 3.0.3 - RELEASE   -


 With contributions from (in alphabetic order):
   Ute Becker             : Parallelization
   Dmytro Bykov           : SCF Hessian
   Dmitry Ganyushin       : Spin-Orbit,Spin-Spin,Magnetic field MRCI
   Andreas Hansen         : Spin unrestricted coupled pair/coupled cluster methods
   Dimitrios Liakos       : Extrapolation schemes; parallel MDCI
   Robert Izsak           : Overlap fitted RIJCOSX, COSX-SCS-MP3
   Christian Kollmar      : KDIIS, OOCD, Brueckner-CCSD(T), CCSD density
   Simone Kossmann        : Meta GGA functionals, TD-DFT gradient, OOMP2, MP2 Hessian
   Taras Petrenko         : DFT Hessian,TD-DFT gradient, ASA and ECA modules, normal mode analysis, Resonance Raman, ABS, FL, XAS/XES, NRVS
   Christoph Reimann      : Effective Core Potentials
   Michael Roemelt        : Restricted open shell CIS
   Christoph Riplinger    : Improved optimizer, TS searches, QM/MM, DLPNO-CCSD
   Barbara Sandhoefer     : DKH picture change effects
   Igor Schapiro          : Molecular dynamics
   Kantharuban Sivalingam : CASSCF convergence, NEVPT2
   Boris Wezisla          : Elementary symmetry handling
   Frank Wennmohs         : Technical directorship


 We gratefully acknowledge several colleagues who have allowed us to
 interface, adapt or use parts of their codes:
   Stefan Grimme, W. Hujo, H. Kruse, T. Risthaus : VdW corrections, initial TS optimization,
                                                   DFT functionals, gCP
   Ed Valeev                                     : LibInt (2-el integral package), F12 methods
   Garnet Chan, S. Sharma, R. Olivares           : DMRG
   Ulf Ekstrom                                   : XCFun DFT Library
   Mihaly Kallay                                 : mrcc  (arbitrary order and MRCC methods)
   Andreas Klamt, Michael Diedenhofen            : otool_cosmo (COSMO solvation model)
   Frank Weinhold                                : gennbo (NPA and NBO analysis)
   Christopher J. Cramer and Donald G. Truhlar   : smd solvation model


 Your calculation uses the libint2 library for the computation of 2-el integrals
 For citations please refer to: http://libint.valeyev.net

 This ORCA versions uses:
   CBLAS   interface :  Fast vector & matrix operations
   LAPACKE interface :  Fast linear algebra routines
   SCALAPACK package :  Parallel linear algebra routines


leaving
================================================================================
                                        WARNINGS
                       Please study these warnings very carefully!
================================================================================
Now building the actual basis set

WARNING: Direct SCF is incompatible with Method<>HF and Method<>DFT
  ===> : conventional SCF is chosen

WARNING: The NDO methods need Guess=HUECKEL or Guess=HCORE or Guess=MOREAD
  ===> : Guess is set to Hueckel

WARNING: The NDO methods need %rel::SOCType==1
  ===> : %rel::SOCType is set to 1

WARNING: The NDO methods cannot have frozencore=1
  ===> : %method FrozenCore=0 end


INFO   : the flag for use of LIBINT has been found!

================================================================================
                                       INPUT FILE
================================================================================
NAME = /Users/mattyjones/GoogleDrive/Boise/Code/MorphCT/tests/output_EZ/donor_polymer/chromophores/input_orca/pair/00022-00024.inp
|  1> # ================================================================
|  2> # Orca input file made by Matty Jones
|  3> # ================================================================
|  4> ! ZINDO/S 
|  5> ! NOPOP
|  6> ! NOMOPRINT
|  7> * xyz 0   1
|  8>  C  -0.19157  -6.39437  -2.21336
|  9>  C  0.65406  -5.41401  -1.69211
| 10>  C  0.00020  -4.47414  -0.83577
| 11>  C  -1.36864  -4.71352  -0.68004
| 12>  S  -1.69334  -6.05658  -1.59717
| 13>  H  1.77507  -5.36627  -1.90621
| 14>  C  0.79593  -3.26783  -0.13368
| 15>  C  1.85955  -2.39655  -1.11680
| 16>  C  2.54138  -1.09006  -0.28890
| 17>  H  1.68109  -0.57484  0.29227
| 18>  H  2.92144  -0.35140  -1.09744
| 19>  H  2.70401  -3.09686  -1.46203
| 20>  H  1.27881  -1.99814  -2.02593
| 21>  H  0.10693  -2.45181  0.29176
| 22>  H  1.42889  -3.69604  0.75131
| 23>  C  3.75407  -1.40561  0.74637
| 24>  C  5.30125  -1.51755  0.08553
| 25>  C  5.75478  -3.09910  -0.26745
| 26>  H  6.79543  -3.30522  0.19676
| 27>  H  5.80728  -3.23720  -1.41497
| 28>  H  4.98365  -3.83963  0.17541
| 29>  H  5.33036  -0.90370  -0.88931
| 30>  H  6.05262  -1.07813  0.84021
| 31>  H  3.53268  -2.39666  1.30179
| 32>  H  3.79235  -0.55461  1.53459
| 33>  C  -4.14699  -0.66464  2.28586
| 34>  C  -4.09891  0.54321  1.58824
| 35>  C  -4.52771  1.67478  2.34979
| 36>  C  -4.91635  1.35885  3.65534
| 37>  S  -4.71185  -0.28085  3.79673
| 38>  H  -4.02391  0.55296  0.44696
| 39>  C  -4.47204  3.08887  1.56386
| 40>  C  -2.99077  3.15229  0.67440
| 41>  C  -2.45621  4.38005  -0.36579
| 42>  H  -2.20542  5.31086  0.26887
| 43>  H  -3.31931  4.63178  -1.08996
| 44>  H  -2.16710  3.04645  1.47786
| 45>  H  -2.98041  2.22424  -0.00718
| 46>  H  -5.34424  3.18004  0.80757
| 47>  H  -4.49514  3.98344  2.29609
| 48>  C  -1.14159  3.90803  -1.21810
| 49>  C  0.38598  4.34609  -0.64717
| 50>  C  0.92020  5.78423  -1.34072
| 51>  H  1.22104  5.58684  -2.44133
| 52>  H  1.83480  6.17943  -0.75317
| 53>  H  0.06724  6.56466  -1.30616
| 54>  H  0.33544  4.47867  0.49445
| 55>  H  1.13516  3.51152  -0.90971
| 56>  H  -1.23266  4.32681  -2.29456
| 57>  H  -1.13645  2.75006  -1.28832
| 58>  H  0.07092  -7.18761  -2.86563
| 59>  H  -2.05505  -4.15375  -0.09772
| 60>  H  -3.87892  -1.62486  1.92573
| 61>  H  -5.26803  2.02741  4.39895
| 62> *
| 63> 
| 64>                          ****END OF INPUT****
================================================================================

                       ****************************
                       * Single Point Calculation *
                       ****************************

---------------------------------
CARTESIAN COORDINATES (ANGSTROEM)
---------------------------------
  C     -0.191570   -6.394370   -2.213360
  C      0.654060   -5.414010   -1.692110
  C      0.000200   -4.474140   -0.835770
  C     -1.368640   -4.713520   -0.680040
  S     -1.693340   -6.056580   -1.597170
  H      1.775070   -5.366270   -1.906210
  C      0.795930   -3.267830   -0.133680
  C      1.859550   -2.396550   -1.116800
  C      2.541380   -1.090060   -0.288900
  H      1.681090   -0.574840    0.292270
  H      2.921440   -0.351400   -1.097440
  H      2.704010   -3.096860   -1.462030
  H      1.278810   -1.998140   -2.025930
  H      0.106930   -2.451810    0.291760
  H      1.428890   -3.696040    0.751310
  C      3.754070   -1.405610    0.746370
  C      5.301250   -1.517550    0.085530
  C      5.754780   -3.099100   -0.267450
  H      6.795430   -3.305220    0.196760
  H      5.807280   -3.237200   -1.414970
  H      4.983650   -3.839630    0.175410
  H      5.330360   -0.903700   -0.889310
  H      6.052620   -1.078130    0.840210
  H      3.532680   -2.396660    1.301790
  H      3.792350   -0.554610    1.534590
  C     -4.146990   -0.664640    2.285860
  C     -4.098910    0.543210    1.588240
  C     -4.527710    1.674780    2.349790
  C     -4.916350    1.358850    3.655340
  S     -4.711850   -0.280850    3.796730
  H     -4.023910    0.552960    0.446960
  C     -4.472040    3.088870    1.563860
  C     -2.990770    3.152290    0.674400
  C     -2.456210    4.380050   -0.365790
  H     -2.205420    5.310860    0.268870
  H     -3.319310    4.631780   -1.089960
  H     -2.167100    3.046450    1.477860
  H     -2.980410    2.224240   -0.007180
  H     -5.344240    3.180040    0.807570
  H     -4.495140    3.983440    2.296090
  C     -1.141590    3.908030   -1.218100
  C      0.385980    4.346090   -0.647170
  C      0.920200    5.784230   -1.340720
  H      1.221040    5.586840   -2.441330
  H      1.834800    6.179430   -0.753170
  H      0.067240    6.564660   -1.306160
  H      0.335440    4.478670    0.494450
  H      1.135160    3.511520   -0.909710
  H     -1.232660    4.326810   -2.294560
  H     -1.136450    2.750060   -1.288320
  H      0.070920   -7.187610   -2.865630
  H     -2.055050   -4.153750   -0.097720
  H     -3.878920   -1.624860    1.925730
  H     -5.268030    2.027410    4.398950

----------------------------
CARTESIAN COORDINATES (A.U.)
----------------------------
  NO LB      ZA    FRAG    MASS        X           Y           Z
   0 C     4.0000    0    12.011         -0.362014835475294        -12.083608098962035         -4.182644235775942
   1 C     4.0000    0    12.011          1.235994275152534        -10.230996186310996         -3.197624488469489
   2 C     4.0000    0    12.011          0.000377945226784         -8.454899284822430         -1.579376410947364
   3 C     4.0000    0    12.011         -2.586354775929982         -8.907261926760498         -1.285089360111808
   4 S     6.0000    0    32.060         -3.199948851614212        -11.445277508184775         -3.018213889315005
   5 H     1.0000    0     1.008          3.354396168539596        -10.140780660677596         -3.602214853742029
   6 C     4.0000    0    12.011          1.504089721771942         -6.175303752211883         -0.252618589582593
   7 C     4.0000    0    12.011          3.514040232333264         -4.528823166248976         -2.110446146363254
   8 C     4.0000    0    12.011          4.802512202224791         -2.059914869542200         -0.545941880089850
   9 H     1.0000    0     1.008          3.176799706473677         -1.086290170823292          0.552310257161164
  10 H     1.0000    0     1.008          5.520721516682902         -0.664049763459928         -2.073861048410538
  11 H     1.0000    0     1.008          5.109838363384403         -5.852217275095367         -2.762836299576887
  12 H     1.0000    0     1.008          2.416600677319836         -3.775937377233410         -3.828452866495081
  13 H     1.0000    0     1.008          0.202068415500199         -4.633249432409464          0.551346496832864
  14 H     1.0000    0     1.008          2.700210775498737         -6.984503380018303          1.419770141676376
  15 C     4.0000    0    12.011          7.094164187569754         -2.656217951101051          1.410434894574805
  16 C     4.0000    0    12.011         10.017910667450035         -2.867753894532195          0.161628276234285
  17 C     4.0000    0    12.011         10.874958160967340         -5.856450261635351         -0.505407254517239
  18 H     1.0000    0     1.008         12.841501662232490         -6.245960612359199          0.371822514110345
  19 H     1.0000    0     1.008         10.974168782998207         -6.117421440729876         -2.673905787714554
  20 H     1.0000    0     1.008          9.417733647316645         -7.255849155588056          0.331476861151127
  21 H     1.0000    0     1.008         10.072920595208483         -1.707745507224635         -1.680552348157508
  22 H     1.0000    0     1.008         11.437794192694447         -2.037370436764519          1.587766794981975
  23 H     1.0000    0     1.008          6.675797718780927         -4.529031036123706          2.460026583877346
  24 H     1.0000    0     1.008          7.166502903976259         -1.048061011134066          2.899954827854213
  25 C     4.0000    0    12.011         -7.836675380110091         -1.255987577649421          4.319649380485233
  26 C     4.0000    0    12.011         -7.745817347591157          1.026518133207363          3.001338634939089
  27 C     4.0000    0    12.011         -8.556131913816591          3.164875534568634          4.440459572226818
  28 C     4.0000    0    12.011         -9.290555078503747          2.567854357078893          6.907591526367708
  29 S     6.0000    0    32.060         -8.904106084116849         -0.530729584711784          7.174779904442834
  30 H     1.0000    0     1.008         -7.604087887547063          1.044942963013095          0.844631992817443
  31 C     4.0000    0    12.011         -8.450930859941193          5.837118363285336          2.955267111794089
  32 C     4.0000    0    12.011         -5.651736229547661          5.956964794698622          1.274431304716492
  33 C     4.0000    0    12.011         -4.641564227398717          8.277094952881779         -0.691242922527055
  34 H     1.0000    0     1.008         -4.167639810272608         10.036070935597019          0.508090665627407
  35 H     1.0000    0     1.008         -6.272586853586151          8.752795712573775         -2.059725896928807
  36 H     1.0000    0     1.008         -4.095225504820744          5.756956180684397          2.792750664276861
  37 H     1.0000    0     1.008         -5.632158666800238          4.203204456113005         -0.013568233641555
  38 H     1.0000    0     1.008        -10.099149993947311          6.009404694914937          1.526086133970785
  39 H     1.0000    0     1.008         -8.494583533634776          7.527610670907270          4.338981278835247
  40 C     4.0000    0    12.011         -2.157292457223162          7.385106423148270         -2.301875403729476
  41 C     4.0000    0    12.011          0.729396493170925          8.212919853373814         -1.222974062089816
  42 C     4.0000    0    12.011          1.738925988434336         10.930610595611322         -2.533593622270900
  43 H     1.0000    0     1.008          2.307431198563205         10.557597554036604         -4.613445102525969
  44 H     1.0000    0     1.008          3.467269510518713         11.677430363737001         -1.423285032285469
  45 H     1.0000    0     1.008          0.127065185244865         12.405409562307483         -2.468284687082582
  46 H     1.0000    0     1.008          0.633889734362545          8.463459744209093          0.934375086917363
  47 H     1.0000    0     1.008          2.145141518182048          6.635811113787153         -1.719102761289502
  48 H     1.0000    0     1.008         -2.329389816239370          8.176485933511811         -4.336089997850348
  49 H     1.0000    0     1.008         -2.147579264894806          5.196860251851477         -2.434571972853427
  50 H     1.0000    0     1.008          0.134019377417695        -13.582614457433728         -5.415255901148756
  51 H     1.0000    0     1.008         -3.883481691514868         -7.849449928775399         -0.184664037806785
  52 H     1.0000    0     1.008         -7.330096495389822         -3.070540405963285          3.639102307876172
  53 H     1.0000    0     1.008         -9.955133965281172          3.831249661173285          8.312810776812890

--------------------------------
INTERNAL COORDINATES (ANGSTROEM)
--------------------------------
 C      0   0   0   0.000000     0.000     0.000
 C      1   0   0   1.395671     0.000     0.000
 C      2   1   0   1.429758   114.101     0.000
 C      3   2   1   1.398312   113.694     0.000
 S      1   2   3   1.658043   105.479     0.000
 H      2   1   3   1.142270   123.640   178.886
 C      3   2   1   1.606643   121.924   179.964
 C      7   3   2   1.690249   116.393    45.556
 C      8   7   3   1.690333   111.553   175.745
 H      9   8   7   1.159012   106.845   315.604
 H      9   8   7   1.159224   106.447   200.332
 H      8   7   3   1.150100   108.830   295.738
 H      8   7   3   1.150003   108.701    55.713
 H      7   3   2   1.149612   113.443   164.949
 H      7   3   2   1.169277   108.898   284.883
 C      9   8   7   1.625415   117.571    78.023
 C     16   9   8   1.686122   116.606    84.175
 C     17  16   9   1.682731   113.074   264.810
 H     18  17  16   1.157985   108.991   230.633
 H     18  17  16   1.156992   109.418   110.791
 H     18  17  16   1.157217   109.973   350.508
 H     17  16   9   1.152377   108.624    25.239
 H     17  16   9   1.152037   108.445   144.220
 H     16   9   8   1.157448   109.218   321.633
 H     16   9   8   1.160585   108.351   204.275
 C     14   7   3   5.026554   155.012    28.859
 C     26  14   7   1.395667    94.603   217.078
 C     27  26  14   1.429783   114.102   218.333
 C     28  27  26   1.398325   113.693     0.000
 S     26  14   7   1.658038   137.064    98.418
 H     27  26  14   1.143783   120.557    55.262
 C     28  27  26   1.618776   114.989   179.645
 C     32  28  27   1.728966   108.136   317.338
 C     33  32  28   1.695625   127.752   177.414
 H     34  33  32   1.154165   108.368    69.721
 H     34  33  32   1.154440   107.879   311.416
 H     33  32  28   1.155501   104.456   300.771
 H     33  32  28   1.151493   106.418    56.409
 H     32  28  27   1.158024   111.097    75.500
 H     32  28  27   1.156265   111.574   198.299
 C     34  33  32   1.636295   111.343   191.017
 C     41  34  33   1.688587   118.415   263.521
 C     42  41  34   1.683642   111.676   266.681
 H     43  42  41   1.157933   109.170   286.674
 H     43  42  41   1.156672   109.481   166.681
 H     43  42  41   1.156636   109.272    46.495
 H     42  41  34   1.150403   109.007    27.078
 H     42  41  34   1.151827   108.867   146.801
 H     41  34  33   1.158636   108.453   141.523
 H     41  34  33   1.160109   108.846    24.554
 H      1   2   3   1.059994   127.260   180.001
 H      4   3   2   1.059999   127.206   180.001
 H     26  14   7   1.059989    47.864   355.344
 H     29  28  27   1.060003   127.206   180.000

---------------------------
INTERNAL COORDINATES (A.U.)
---------------------------
 C      0   0   0   0.000000     0.000     0.000
 C      1   0   0   2.637436     0.000     0.000
 C      2   1   0   2.701850   114.101     0.000
 C      3   2   1   2.642427   113.694     0.000
 S      1   2   3   3.133246   105.479     0.000
 H      2   1   3   2.158578   123.640   178.886
 C      3   2   1   3.036114   121.924   179.964
 C      7   3   2   3.194107   116.393    45.556
 C      8   7   3   3.194267   111.553   175.745
 H      9   8   7   2.190215   106.845   315.604
 H      9   8   7   2.190617   106.447   200.332
 H      8   7   3   2.173374   108.830   295.738
 H      8   7   3   2.173191   108.701    55.713
 H      7   3   2   2.172453   113.443   164.949
 H      7   3   2   2.209614   108.898   284.883
 C      9   8   7   3.071589   117.571    78.023
 C     16   9   8   3.186308   116.606    84.175
 C     17  16   9   3.179901   113.074   264.810
 H     18  17  16   2.188274   108.991   230.633
 H     18  17  16   2.186398   109.418   110.791
 H     18  17  16   2.186823   109.973   350.508
 H     17  16   9   2.177677   108.624    25.239
 H     17  16   9   2.177034   108.445   144.220
 H     16   9   8   2.187259   109.218   321.633
 H     16   9   8   2.193187   108.351   204.275
 C     14   7   3   9.498811   155.012    28.859
 C     26  14   7   2.637429    94.603   217.078
 C     27  26  14   2.701898   114.102   218.333
 C     28  27  26   2.642452   113.693     0.000
 S     26  14   7   3.133238   137.064    98.418
 H     27  26  14   2.161437   120.557    55.262
 C     28  27  26   3.059043   114.989   179.645
 C     32  28  27   3.267271   108.136   317.338
 C     33  32  28   3.204267   127.752   177.414
 H     34  33  32   2.181055   108.368    69.721
 H     34  33  32   2.181576   107.879   311.416
 H     33  32  28   2.183580   104.456   300.771
 H     33  32  28   2.176006   106.418    56.409
 H     32  28  27   2.188348   111.097    75.500
 H     32  28  27   2.185025   111.574   198.299
 C     34  33  32   3.092149   111.343   191.017
 C     41  34  33   3.190968   118.415   263.521
 C     42  41  34   3.181622   111.676   266.681
 H     43  42  41   2.188177   109.170   286.674
 H     43  42  41   2.185794   109.481   166.681
 H     43  42  41   2.185725   109.272    46.495
 H     42  41  34   2.173947   109.007    27.078
 H     42  41  34   2.176637   108.867   146.801
 H     41  34  33   2.189504   108.453   141.523
 H     41  34  33   2.192287   108.846    24.554
 H      1   2   3   2.003098   127.260   180.001
 H      4   3   2   2.003108   127.206   180.001
 H     26  14   7   2.003090    47.864   355.344
 H     29  28  27   2.003116   127.206   180.000

----------------------------
SLATER BASIS SET DIM= 120
----------------------------
  0 C     2 shells
 l=0 nsto= 1
    2       1.625000000000        1.000000000000
 l=1 nsto= 1
    2       1.625000000000        1.000000000000
  1 C     2 shells
 l=0 nsto= 1
    2       1.625000000000        1.000000000000
 l=1 nsto= 1
    2       1.625000000000        1.000000000000
  2 C     2 shells
 l=0 nsto= 1
    2       1.625000000000        1.000000000000
 l=1 nsto= 1
    2       1.625000000000        1.000000000000
  3 C     2 shells
 l=0 nsto= 1
    2       1.625000000000        1.000000000000
 l=1 nsto= 1
    2       1.625000000000        1.000000000000
  4 S     2 shells
 l=0 nsto= 1
    3       1.925000000000        1.000000000000
 l=1 nsto= 1
    3       1.925000000000        1.000000000000
  5 H     1 shells
 l=0 nsto= 1
    1       1.200000000000        1.000000000000
  6 C     2 shells
 l=0 nsto= 1
    2       1.625000000000        1.000000000000
 l=1 nsto= 1
    2       1.625000000000        1.000000000000
  7 C     2 shells
 l=0 nsto= 1
    2       1.625000000000        1.000000000000
 l=1 nsto= 1
    2       1.625000000000        1.000000000000
  8 C     2 shells
 l=0 nsto= 1
    2       1.625000000000        1.000000000000
 l=1 nsto= 1
    2       1.625000000000        1.000000000000
  9 H     1 shells
 l=0 nsto= 1
    1       1.200000000000        1.000000000000
 10 H     1 shells
 l=0 nsto= 1
    1       1.200000000000        1.000000000000
 11 H     1 shells
 l=0 nsto= 1
    1       1.200000000000        1.000000000000
 12 H     1 shells
 l=0 nsto= 1
    1       1.200000000000        1.000000000000
 13 H     1 shells
 l=0 nsto= 1
    1       1.200000000000        1.000000000000
 14 H     1 shells
 l=0 nsto= 1
    1       1.200000000000        1.000000000000
 15 C     2 shells
 l=0 nsto= 1
    2       1.625000000000        1.000000000000
 l=1 nsto= 1
    2       1.625000000000        1.000000000000
 16 C     2 shells
 l=0 nsto= 1
    2       1.625000000000        1.000000000000
 l=1 nsto= 1
    2       1.625000000000        1.000000000000
 17 C     2 shells
 l=0 nsto= 1
    2       1.625000000000        1.000000000000
 l=1 nsto= 1
    2       1.625000000000        1.000000000000
 18 H     1 shells
 l=0 nsto= 1
    1       1.200000000000        1.000000000000
 19 H     1 shells
 l=0 nsto= 1
    1       1.200000000000        1.000000000000
 20 H     1 shells
 l=0 nsto= 1
    1       1.200000000000        1.000000000000
 21 H     1 shells
 l=0 nsto= 1
    1       1.200000000000        1.000000000000
 22 H     1 shells
 l=0 nsto= 1
    1       1.200000000000        1.000000000000
 23 H     1 shells
 l=0 nsto= 1
    1       1.200000000000        1.000000000000
 24 H     1 shells
 l=0 nsto= 1
    1       1.200000000000        1.000000000000
 25 C     2 shells
 l=0 nsto= 1
    2       1.625000000000        1.000000000000
 l=1 nsto= 1
    2       1.625000000000        1.000000000000
 26 C     2 shells
 l=0 nsto= 1
    2       1.625000000000        1.000000000000
 l=1 nsto= 1
    2       1.625000000000        1.000000000000
 27 C     2 shells
 l=0 nsto= 1
    2       1.625000000000        1.000000000000
 l=1 nsto= 1
    2       1.625000000000        1.000000000000
 28 C     2 shells
 l=0 nsto= 1
    2       1.625000000000        1.000000000000
 l=1 nsto= 1
    2       1.625000000000        1.000000000000
 29 S     2 shells
 l=0 nsto= 1
    3       1.925000000000        1.000000000000
 l=1 nsto= 1
    3       1.925000000000        1.000000000000
 30 H     1 shells
 l=0 nsto= 1
    1       1.200000000000        1.000000000000
 31 C     2 shells
 l=0 nsto= 1
    2       1.625000000000        1.000000000000
 l=1 nsto= 1
    2       1.625000000000        1.000000000000
 32 C     2 shells
 l=0 nsto= 1
    2       1.625000000000        1.000000000000
 l=1 nsto= 1
    2       1.625000000000        1.000000000000
 33 C     2 shells
 l=0 nsto= 1
    2       1.625000000000        1.000000000000
 l=1 nsto= 1
    2       1.625000000000        1.000000000000
 34 H     1 shells
 l=0 nsto= 1
    1       1.200000000000        1.000000000000
 35 H     1 shells
 l=0 nsto= 1
    1       1.200000000000        1.000000000000
 36 H     1 shells
 l=0 nsto= 1
    1       1.200000000000        1.000000000000
 37 H     1 shells
 l=0 nsto= 1
    1       1.200000000000        1.000000000000
 38 H     1 shells
 l=0 nsto= 1
    1       1.200000000000        1.000000000000
 39 H     1 shells
 l=0 nsto= 1
    1       1.200000000000        1.000000000000
 40 C     2 shells
 l=0 nsto= 1
    2       1.625000000000        1.000000000000
 l=1 nsto= 1
    2       1.625000000000        1.000000000000
 41 C     2 shells
 l=0 nsto= 1
    2       1.625000000000        1.000000000000
 l=1 nsto= 1
    2       1.625000000000        1.000000000000
 42 C     2 shells
 l=0 nsto= 1
    2       1.625000000000        1.000000000000
 l=1 nsto= 1
    2       1.625000000000        1.000000000000
 43 H     1 shells
 l=0 nsto= 1
    1       1.200000000000        1.000000000000
 44 H     1 shells
 l=0 nsto= 1
    1       1.200000000000        1.000000000000
 45 H     1 shells
 l=0 nsto= 1
    1       1.200000000000        1.000000000000
 46 H     1 shells
 l=0 nsto= 1
    1       1.200000000000        1.000000000000
 47 H     1 shells
 l=0 nsto= 1
    1       1.200000000000        1.000000000000
 48 H     1 shells
 l=0 nsto= 1
    1       1.200000000000        1.000000000000
 49 H     1 shells
 l=0 nsto= 1
    1       1.200000000000        1.000000000000
 50 H     1 shells
 l=0 nsto= 1
    1       1.200000000000        1.000000000000
 51 H     1 shells
 l=0 nsto= 1
    1       1.200000000000        1.000000000000
 52 H     1 shells
 l=0 nsto= 1
    1       1.200000000000        1.000000000000
 53 H     1 shells
 l=0 nsto= 1
    1       1.200000000000        1.000000000000
------------------------------------------------------------------------------
                           ORCA NDO INTEGRAL CALCULATION
------------------------------------------------------------------------------

--------------
NDO PARAMETERS
--------------

Gamma integral treatment              ... Mataga-Nishimoto
Nuclear repulsuion treatment          ... Direct (ZA*ZB/RAB)
Interaction factors:
s-s (sigma) =    1.0000
s-p (sigma) =    1.0000
s-d (sigma) =    1.0000
p-p (sigma) =    1.2670  p-p(pi) =    0.5850
p-d (sigma) =    1.0000  p-d(pi) =    1.0000
d-d (sigma) =    1.0000  d-d(pi) =    1.0000 d-d (delta) =    1.0000

fGamma parameter for Mataga-Nishimoto gamma integrals:    1.2000

--------------------------
Parameters for Element H :
--------------------------
 One-electron parameters (in eV)
  U(s)  =   -13.060000 Beta(s) =    12.000000 Neff(s) =     1.000000
 One-center electron repulsion parameters (in eV)
  G(s,s)=    12.850000
--------------------------
Parameters for Element C :
--------------------------
 One-electron parameters (in eV)
  U(s)  =   -50.870766 Beta(s) =    17.000000 Neff(s) =     2.000000
  U(p)  =   -41.599980 Beta(p) =    17.000000 Neff(p) =     2.000000 
 One-center electron repulsion parameters (in eV)
  G(s,s)=    11.110000
  G(s,p)=    11.110000 G(p,p)  =    11.110000
 Slater-Condon parameters (in eV)
 F2(p,p)=     4.5098 G1(s,p)=    6.8977
--------------------------
Parameters for Element S :
--------------------------
 One-electron parameters (in eV)
  U(s)  =   -69.509597 Beta(s) =    15.000000 Neff(s) =     2.000000
  U(p)  =   -60.725746 Beta(p) =    15.000000 Neff(p) =     4.000000 
 One-center electron repulsion parameters (in eV)
  G(s,s)=    10.090000
  G(s,p)=    10.090000 G(p,p)  =    10.090000
 Slater-Condon parameters (in eV)
 F2(p,p)=     4.5377 G1(s,p)=    3.0756

 Number of atoms                    ....   54
 Number of basis functions          ....  120

 Overlap integrals                  .... done
 One electron matrix                .... done
 Nuclear repulsion                  .... done
 Integral list                      .... done
 Electron-electron repulsion        .... done
-------------------------------------------------------------------------------
                                 ORCA SCF
-------------------------------------------------------------------------------

------------
SCF SETTINGS
------------
Hamiltonian:
 ZDO-Hamiltonian        Method          .... INDO


General Settings:
 Integral files         IntName         .... /Users/mattyjones/GoogleDrive/Boise/Code/MorphCT/tests/output_EZ/donor_polymer/chromophores/input_orca/pair/00022-00024
 Hartree-Fock type      HFTyp           .... RHF
 Total Charge           Charge          ....    0
 Multiplicity           Mult            ....    1
 Number of Electrons    NEL             ....  124
 Basis Dimension        Dim             ....  120
 Nuclear Repulsion      ENuc            ....    826.0885718357 Eh

Convergence Acceleration:
 DIIS                   CNVDIIS         .... on
   Start iteration      DIISMaxIt       ....    12
   Startup error        DIISStart       ....  0.200000
   # of expansion vecs  DIISMaxEq       ....     5
   Bias factor          DIISBfac        ....   1.050
   Max. coefficient     DIISMaxC        ....  10.000
 Newton-Raphson         CNVNR           .... off
 SOSCF                  CNVSOSCF        .... on
   Start iteration      SOSCFMaxIt      ....   150
   Startup grad/error   SOSCFStart      ....  0.003300
 Level Shifting         CNVShift        .... on
   Level shift para.    LevelShift      ....    0.2500
   Turn off err/grad.   ShiftErr        ....    0.0010
 Zerner damping         CNVZerner       .... off
 Static damping         CNVDamp         .... on
   Fraction old density DampFac         ....    0.7000
   Max. Damping (<1)    DampMax         ....    0.9800
   Min. Damping (>=0)   DampMin         ....    0.0000
   Turn off err/grad.   DampErr         ....    0.1000
 Fernandez-Rico         CNVRico         .... off

SCF Procedure:
 Maximum # iterations   MaxIter         ....   125
 SCF integral mode      SCFMode         .... Conventional
 Integral Buffer length BufferLength    .... 1048576
 Integral index format  IndFormat       ....     0
 Integral value format  ValFormat       ....     0
 Integral Storage       Thresh          ....  1.000e-08 Eh

Convergence Tolerance:
 Convergence Check Mode ConvCheckMode   .... Total+1el-Energy
 Energy Change          TolE            ....  1.000e-06 Eh
 1-El. energy change                    ....  1.000e-03 Eh
 Orbital Gradient       TolG            ....  5.000e-05
 Orbital Rotation angle TolX            ....  5.000e-05
 DIIS Error             TolErr          ....  1.000e-06


Diagonalization of the overlap matrix:
Smallest eigenvalue                        ... 1.695e-01
Time for diagonalization                   ...    0.004 sec
Threshold for overlap eigenvalues          ... 1.000e-08
Number of eigenvalues below threshold      ... 0
Time for construction of square roots      ...    0.001 sec
Total time needed                          ...    0.005 sec

-------------------------------
INITIAL GUESS: EXTENDED HUECKEL
-------------------------------
EHT matrix was read from disk
EHT matrix was diagonalized
Initial density was built
                      ------------------
                      INITIAL GUESS DONE
                      ------------------

 InCore treatment chosen:
   Memory dedicated               ...    1024 MB
   Memory needed                  ...      0 MB
   Number of tiny    integrals    ...       0
   Number of small   integrals    ...       0
   Number of regular integrals    ...    7392

--------------
SCF ITERATIONS
--------------
ITER       Energy         Delta-E        Max-DP      RMS-DP      [F,P]     Damp
  0    -16.4870925113   0.000000000000 0.04446024  0.00144742  0.1137899 0.7000
  1    -16.5287674300  -0.041674918676 0.04349205  0.00136374  0.0777105 0.7000
                               ***Turning on DIIS***
  2    -16.5595949021  -0.030827472103 0.11497756  0.00350163  0.0469734 0.0000
  3    -16.6350910515  -0.075496149422 0.02076798  0.00073265  0.0216238 0.0000
  4    -16.6259354686   0.009155582998 0.01507043  0.00050157  0.0086032 0.0000
  5    -16.6427638388  -0.016828370273 0.01057940  0.00033939  0.0050900 0.0000
  6    -16.6455108837  -0.002747044843 0.00813692  0.00024142  0.0029462 0.0000
                      *** Initiating the SOSCF procedure ***
                           *** Shutting down DIIS ***
                      *** Re-Reading the Fockian *** 
                      *** Removing any level shift *** 
ITER      Energy       Delta-E        Grad      Rot      Max-DP    RMS-DP
  7    -16.64136838   0.0041424998  0.003023  0.003023  0.004885  0.000136
  8    -16.63866470   0.0027036831  0.000824  0.002286  0.002463  0.000063
  9    -16.63867945  -0.0000147501  0.000361  0.002229  0.002784  0.000067
 10    -16.63868487  -0.0000054235  0.000035  0.000091  0.000163  0.000004
                 **** Energy Check signals convergence ****
              ***Rediagonalizing the Fockian in SOSCF/NRSCF***

               *****************************************************
               *                     SUCCESS                       *
               *           SCF CONVERGED AFTER  11 CYCLES          *
               *****************************************************


----------------
TOTAL SCF ENERGY
----------------

Total Energy       :          -16.63868493 Eh            -452.76163 eV

Components:
Nuclear Repulsion  :          826.08857184 Eh           22479.01285 eV
Electronic Energy  :         -842.72725676 Eh          -22931.77449 eV

One Electron Energy:        -1594.95167047 Eh          -43400.84141 eV
Two Electron Energy:          752.22441370 Eh           20469.06692 eV


---------------
SCF CONVERGENCE
---------------

  Last Energy change         ...   -5.1878e-08  Tolerance :   1.0000e-06
  Last MAX-Density change    ...    8.0115e-05  Tolerance :   1.0000e-05
  Last RMS-Density change    ...    1.5060e-06  Tolerance :   1.0000e-06
  Last Orbital Gradient      ...    1.5189e-05  Tolerance :   5.0000e-05
  Last Orbital Rotation      ...    2.7507e-05  Tolerance :   5.0000e-05

             **** THE GBW FILE WAS UPDATED (/Users/mattyjones/GoogleDrive/Boise/Code/MorphCT/tests/output_EZ/donor_polymer/chromophores/input_orca/pair/00022-00024.gbw) ****
             **** DENSITY FILE WAS UPDATED (/Users/mattyjones/GoogleDrive/Boise/Code/MorphCT/tests/output_EZ/donor_polymer/chromophores/input_orca/pair/00022-00024.scfp.tmp) ****
             **** ENERGY FILE WAS UPDATED (/Users/mattyjones/GoogleDrive/Boise/Code/MorphCT/tests/output_EZ/donor_polymer/chromophores/input_orca/pair/00022-00024.en.tmp) ****
----------------
ORBITAL ENERGIES
----------------

  NO   OCC          E(Eh)            E(eV) 
   0   2.0000      -1.562300       -42.5124 
   1   2.0000      -1.558660       -42.4133 
   2   2.0000      -1.412161       -38.4268 
   3   2.0000      -1.401409       -38.1343 
   4   2.0000      -1.292601       -35.1735 
   5   2.0000      -1.292471       -35.1699 
   6   2.0000      -1.186337       -32.2819 
   7   2.0000      -1.176972       -32.0270 
   8   2.0000      -1.120615       -30.4935 
   9   2.0000      -1.116556       -30.3830 
  10   2.0000      -1.039880       -28.2966 
  11   2.0000      -1.017380       -27.6843 
  12   2.0000      -0.949683       -25.8422 
  13   2.0000      -0.949485       -25.8368 
  14   2.0000      -0.914603       -24.8876 
  15   2.0000      -0.914509       -24.8851 
  16   2.0000      -0.858906       -23.3720 
  17   2.0000      -0.854458       -23.2510 
  18   2.0000      -0.838886       -22.8273 
  19   2.0000      -0.832921       -22.6649 
  20   2.0000      -0.773761       -21.0551 
  21   2.0000      -0.773014       -21.0348 
  22   2.0000      -0.736485       -20.0408 
  23   2.0000      -0.726666       -19.7736 
  24   2.0000      -0.709509       -19.3067 
  25   2.0000      -0.706909       -19.2360 
  26   2.0000      -0.676205       -18.4005 
  27   2.0000      -0.658573       -17.9207 
  28   2.0000      -0.646435       -17.5904 
  29   2.0000      -0.640426       -17.4269 
  30   2.0000      -0.624402       -16.9909 
  31   2.0000      -0.623950       -16.9786 
  32   2.0000      -0.583445       -15.8763 
  33   2.0000      -0.580622       -15.7995 
  34   2.0000      -0.576350       -15.6833 
  35   2.0000      -0.575457       -15.6590 
  36   2.0000      -0.570954       -15.5365 
  37   2.0000      -0.569930       -15.5086 
  38   2.0000      -0.552447       -15.0328 
  39   2.0000      -0.552082       -15.0229 
  40   2.0000      -0.542223       -14.7546 
  41   2.0000      -0.530526       -14.4364 
  42   2.0000      -0.515294       -14.0219 
  43   2.0000      -0.514987       -14.0135 
  44   2.0000      -0.506982       -13.7957 
  45   2.0000      -0.506694       -13.7878 
  46   2.0000      -0.495847       -13.4927 
  47   2.0000      -0.493298       -13.4233 
  48   2.0000      -0.488991       -13.3061 
  49   2.0000      -0.488741       -13.2993 
  50   2.0000      -0.476847       -12.9757 
  51   2.0000      -0.475541       -12.9401 
  52   2.0000      -0.473012       -12.8713 
  53   2.0000      -0.468861       -12.7584 
  54   2.0000      -0.465042       -12.6544 
  55   2.0000      -0.464908       -12.6508 
  56   2.0000      -0.438440       -11.9306 
  57   2.0000      -0.435646       -11.8545 
  58   2.0000      -0.356944        -9.7129 
  59   2.0000      -0.353445        -9.6177 
  60   2.0000      -0.305555        -8.3146 
  61   2.0000      -0.305219        -8.3054 
  62   0.0000       0.007232         0.1968 
  63   0.0000       0.007524         0.2047 
  64   0.0000       0.067194         1.8285 
  65   0.0000       0.071397         1.9428 
  66   0.0000       0.071421         1.9435 
  67   0.0000       0.079335         2.1588 
  68   0.0000       0.087674         2.3857 
  69   0.0000       0.090809         2.4710 
  70   0.0000       0.104092         2.8325 
  71   0.0000       0.104361         2.8398 
  72   0.0000       0.107482         2.9247 
  73   0.0000       0.108476         2.9518 
  74   0.0000       0.123697         3.3660 
  75   0.0000       0.124039         3.3753 
  76   0.0000       0.141878         3.8607 
  77   0.0000       0.142103         3.8668 
  78   0.0000       0.156125         4.2484 
  79   0.0000       0.157426         4.2838 
  80   0.0000       0.164913         4.4875 
  81   0.0000       0.165346         4.4993 
  82   0.0000       0.168283         4.5792 
  83   0.0000       0.172140         4.6842 
  84   0.0000       0.202811         5.5188 
  85   0.0000       0.206355         5.6152 
  86   0.0000       0.232015         6.3134 
  87   0.0000       0.233211         6.3460 
  88   0.0000       0.235751         6.4151 
  89   0.0000       0.236937         6.4474 
  90   0.0000       0.237926         6.4743 
  91   0.0000       0.238645         6.4939 
  92   0.0000       0.239404         6.5145 
  93   0.0000       0.239762         6.5243 
  94   0.0000       0.240801         6.5525 
  95   0.0000       0.241407         6.5690 
  96   0.0000       0.243919         6.6374 
  97   0.0000       0.245231         6.6731 
  98   0.0000       0.245313         6.6753 
  99   0.0000       0.245973         6.6933 
 100   0.0000       0.246832         6.7166 
 101   0.0000       0.254959         6.9378 
 102   0.0000       0.259300         7.0559 
 103   0.0000       0.265800         7.2328 
 104   0.0000       0.266711         7.2576 
 105   0.0000       0.267062         7.2671 
 106   0.0000       0.280169         7.6238 
 107   0.0000       0.286764         7.8032 
 108   0.0000       0.302186         8.2229 
 109   0.0000       0.307672         8.3722 
 110   0.0000       0.309810         8.4304 
 111   0.0000       0.310257         8.4425 
 112   0.0000       0.336827         9.1655 
 113   0.0000       0.342525         9.3206 
 114   0.0000       0.347781         9.4636 
 115   0.0000       0.351235         9.5576 
 116   0.0000       0.413239        11.2448 
 117   0.0000       0.419510        11.4154 
 118   0.0000       0.423838        11.5332 
 119   0.0000       0.429535        11.6882 
-------
TIMINGS
-------

Total SCF time: 0 days 0 hours 0 min 0 sec 

Total time                  ....       0.138 sec
Sum of individual times     ....       0.113 sec  ( 82.0%)

Fock matrix formation       ....       0.047 sec  ( 33.8%)
Diagonalization             ....       0.029 sec  ( 21.3%)
Density matrix formation    ....       0.005 sec  (  3.9%)
Population analysis         ....       0.000 sec  (  0.0%)
Initial guess               ....       0.003 sec  (  2.4%)
Orbital Transformation      ....       0.000 sec  (  0.0%)
Orbital Orthonormalization  ....       0.000 sec  (  0.0%)
DIIS solution               ....       0.022 sec  ( 15.9%)
SOSCF solution              ....       0.006 sec  (  4.7%)

-------------------------   --------------------
FINAL SINGLE POINT ENERGY       -16.638684926200
-------------------------   --------------------


                            ***************************************
                            *     ORCA property calculations      *
                            ***************************************

                                    ---------------------
                                    Active property flags
                                    ---------------------
   (+) Dipole Moment


------------------------------------------------------------------------------
                       ORCA ELECTRIC PROPERTIES CALCULATION
------------------------------------------------------------------------------

Dipole Moment Calculation                       ... on
Quadrupole Moment Calculation                   ... off
Polarizability Calculation                      ... off
GBWName                                         ... /Users/mattyjones/GoogleDrive/Boise/Code/MorphCT/tests/output_EZ/donor_polymer/chromophores/input_orca/pair/00022-00024.gbw
Electron density file                           ... /Users/mattyjones/GoogleDrive/Boise/Code/MorphCT/tests/output_EZ/donor_polymer/chromophores/input_orca/pair/00022-00024.scfp.tmp

-------------
DIPOLE MOMENT
-------------
                                X             Y             Z
Electronic contribution:   -175.66579    -166.14751      58.16538
Nuclear contribution   :     94.55184      89.46242     -31.04472
                        -----------------------------------------
Total Dipole Moment    :    -81.11394     -76.68509      27.12066
                        -----------------------------------------
Magnitude (a.u.)       :    114.87212
Magnitude (Debye)      :    291.98173


Timings for individual modules:

Sum of individual times         ...        0.236 sec (=   0.004 min)
STO integral calculation        ...        0.049 sec (=   0.001 min)  20.8 %
SCF iterations                  ...        0.187 sec (=   0.003 min)  79.2 %
                             ****ORCA TERMINATED NORMALLY****
TOTAL RUN TIME: 0 days 0 hours 0 minutes 0 seconds 556 msec

