
                                 *****************
                                 * O   R   C   A *
                                 *****************

           --- An Ab Initio, DFT and Semiempirical electronic structure package ---

                  #######################################################
                  #                        -***-                        #
                  #  Department of molecular theory and spectroscopy    #
                  #              Directorship: Frank Neese              #
                  # Max Planck Institute for Chemical Energy Conversion #
                  #                  D-45470 Muelheim/Ruhr              #
                  #                       Germany                       #
                  #                                                     #
                  #                  All rights reserved                #
                  #                        -***-                        #
                  #######################################################


                         Program Version 3.0.3 - RELEASE   -


 With contributions from (in alphabetic order):
   Ute Becker             : Parallelization
   Dmytro Bykov           : SCF Hessian
   Dmitry Ganyushin       : Spin-Orbit,Spin-Spin,Magnetic field MRCI
   Andreas Hansen         : Spin unrestricted coupled pair/coupled cluster methods
   Dimitrios Liakos       : Extrapolation schemes; parallel MDCI
   Robert Izsak           : Overlap fitted RIJCOSX, COSX-SCS-MP3
   Christian Kollmar      : KDIIS, OOCD, Brueckner-CCSD(T), CCSD density
   Simone Kossmann        : Meta GGA functionals, TD-DFT gradient, OOMP2, MP2 Hessian
   Taras Petrenko         : DFT Hessian,TD-DFT gradient, ASA and ECA modules, normal mode analysis, Resonance Raman, ABS, FL, XAS/XES, NRVS
   Christoph Reimann      : Effective Core Potentials
   Michael Roemelt        : Restricted open shell CIS
   Christoph Riplinger    : Improved optimizer, TS searches, QM/MM, DLPNO-CCSD
   Barbara Sandhoefer     : DKH picture change effects
   Igor Schapiro          : Molecular dynamics
   Kantharuban Sivalingam : CASSCF convergence, NEVPT2
   Boris Wezisla          : Elementary symmetry handling
   Frank Wennmohs         : Technical directorship


 We gratefully acknowledge several colleagues who have allowed us to
 interface, adapt or use parts of their codes:
   Stefan Grimme, W. Hujo, H. Kruse, T. Risthaus : VdW corrections, initial TS optimization,
                                                   DFT functionals, gCP
   Ed Valeev                                     : LibInt (2-el integral package), F12 methods
   Garnet Chan, S. Sharma, R. Olivares           : DMRG
   Ulf Ekstrom                                   : XCFun DFT Library
   Mihaly Kallay                                 : mrcc  (arbitrary order and MRCC methods)
   Andreas Klamt, Michael Diedenhofen            : otool_cosmo (COSMO solvation model)
   Frank Weinhold                                : gennbo (NPA and NBO analysis)
   Christopher J. Cramer and Donald G. Truhlar   : smd solvation model


 Your calculation uses the libint2 library for the computation of 2-el integrals
 For citations please refer to: http://libint.valeyev.net

 This ORCA versions uses:
   CBLAS   interface :  Fast vector & matrix operations
   LAPACKE interface :  Fast linear algebra routines
   SCALAPACK package :  Parallel linear algebra routines


leaving
================================================================================
                                        WARNINGS
                       Please study these warnings very carefully!
================================================================================
Now building the actual basis set

WARNING: Direct SCF is incompatible with Method<>HF and Method<>DFT
  ===> : conventional SCF is chosen

WARNING: The NDO methods need Guess=HUECKEL or Guess=HCORE or Guess=MOREAD
  ===> : Guess is set to Hueckel

WARNING: The NDO methods need %rel::SOCType==1
  ===> : %rel::SOCType is set to 1

WARNING: The NDO methods cannot have frozencore=1
  ===> : %method FrozenCore=0 end


INFO   : the flag for use of LIBINT has been found!

================================================================================
                                       INPUT FILE
================================================================================
NAME = /Users/mattyjones/GoogleDrive/Boise/Code/MorphCT/tests/output_EZ/donor_polymer/chromophores/input_orca/pair/00008-00014.inp
|  1> # ================================================================
|  2> # Orca input file made by Matty Jones
|  3> # ================================================================
|  4> ! ZINDO/S 
|  5> ! NOPOP
|  6> ! NOMOPRINT
|  7> * xyz 0   1
|  8>  C  -3.23981  9.61689  30.63067
|  9>  C  -3.92443  8.54083  31.19749
| 10>  C  -3.17339  7.82326  32.17999
| 11>  C  -1.88924  8.33530  32.39003
| 12>  S  -1.75258  9.63068  31.36351
| 13>  H  -4.97212  8.20605  30.88653
| 14>  C  -3.75464  6.55900  32.98947
| 15>  C  -4.57739  5.23776  32.29616
| 16>  C  -6.27032  5.22038  32.13211
| 17>  H  -6.73505  5.46385  33.15945
| 18>  H  -6.56731  6.03547  31.37276
| 19>  H  -4.30893  4.31881  32.94258
| 20>  H  -4.14325  5.09865  31.23704
| 21>  H  -4.48896  6.95941  33.81034
| 22>  H  -2.87601  6.03364  33.54413
| 23>  C  -6.78317  3.75716  31.61483
| 24>  C  -8.44825  3.46696  31.51267
| 25>  C  -9.12791  2.76901  32.88824
| 26>  H  -10.02679  2.10977  32.57513
| 27>  H  -9.49027  3.60501  33.60144
| 28>  H  -8.33939  2.11462  33.42525
| 29>  H  -8.62823  2.75011  30.62797
| 30>  H  -8.98085  4.46833  31.31312
| 31>  H  -6.35378  3.57476  30.55424
| 32>  H  -6.35208  2.94888  32.32471
| 33>  C  7.25914  -1.43646  -34.89193
| 34>  C  6.53535  -2.44795  -34.25875
| 35>  C  7.34507  -3.38895  -33.54942
| 36>  C  8.71515  -3.11913  -33.62287
| 37>  S  8.85069  -1.74977  -34.54856
| 38>  H  5.39713  -2.52845  -34.29021
| 39>  C  6.77440  -4.66942  -32.73149
| 40>  C  5.44089  -4.56059  -31.66214
| 41>  C  5.05878  -6.01202  -30.82786
| 42>  H  4.75030  -5.63553  -29.76966
| 43>  H  6.08081  -6.55255  -30.72501
| 44>  H  4.52139  -4.27077  -32.28954
| 45>  H  5.66764  -3.74781  -30.88473
| 46>  H  7.63829  -5.09716  -32.06786
| 47>  H  6.48338  -5.49712  -33.49351
| 48>  C  3.95931  -7.16173  -31.22178
| 49>  C  4.29102  -8.61368  -30.38713
| 50>  C  3.24214  -9.91983  -30.56585
| 51>  H  3.20703  -10.24364  -31.67506
| 52>  H  2.18486  -9.61196  -30.21207
| 53>  H  3.62554  -10.80077  -29.91775
| 54>  H  5.32389  -8.96806  -30.76508
| 55>  H  4.36127  -8.36734  -29.26415
| 56>  H  3.96396  -7.36980  -32.35278
| 57>  H  2.90379  -6.81998  -30.89701
| 58>  H  -3.59562  10.28455  29.88821
| 59>  H  -1.15655  7.97164  33.06421
| 60>  H  6.87282  -0.63661  -35.47038
| 61>  H  9.50231  -3.67372  -33.17968
| 62> *
| 63> 
| 64>                          ****END OF INPUT****
================================================================================

                       ****************************
                       * Single Point Calculation *
                       ****************************

---------------------------------
CARTESIAN COORDINATES (ANGSTROEM)
---------------------------------
  C     -3.239810    9.616890   30.630670
  C     -3.924430    8.540830   31.197490
  C     -3.173390    7.823260   32.179990
  C     -1.889240    8.335300   32.390030
  S     -1.752580    9.630680   31.363510
  H     -4.972120    8.206050   30.886530
  C     -3.754640    6.559000   32.989470
  C     -4.577390    5.237760   32.296160
  C     -6.270320    5.220380   32.132110
  H     -6.735050    5.463850   33.159450
  H     -6.567310    6.035470   31.372760
  H     -4.308930    4.318810   32.942580
  H     -4.143250    5.098650   31.237040
  H     -4.488960    6.959410   33.810340
  H     -2.876010    6.033640   33.544130
  C     -6.783170    3.757160   31.614830
  C     -8.448250    3.466960   31.512670
  C     -9.127910    2.769010   32.888240
  H    -10.026790    2.109770   32.575130
  H     -9.490270    3.605010   33.601440
  H     -8.339390    2.114620   33.425250
  H     -8.628230    2.750110   30.627970
  H     -8.980850    4.468330   31.313120
  H     -6.353780    3.574760   30.554240
  H     -6.352080    2.948880   32.324710
  C      7.259140   -1.436460  -34.891930
  C      6.535350   -2.447950  -34.258750
  C      7.345070   -3.388950  -33.549420
  C      8.715150   -3.119130  -33.622870
  S      8.850690   -1.749770  -34.548560
  H      5.397130   -2.528450  -34.290210
  C      6.774400   -4.669420  -32.731490
  C      5.440890   -4.560590  -31.662140
  C      5.058780   -6.012020  -30.827860
  H      4.750300   -5.635530  -29.769660
  H      6.080810   -6.552550  -30.725010
  H      4.521390   -4.270770  -32.289540
  H      5.667640   -3.747810  -30.884730
  H      7.638290   -5.097160  -32.067860
  H      6.483380   -5.497120  -33.493510
  C      3.959310   -7.161730  -31.221780
  C      4.291020   -8.613680  -30.387130
  C      3.242140   -9.919830  -30.565850
  H      3.207030  -10.243640  -31.675060
  H      2.184860   -9.611960  -30.212070
  H      3.625540  -10.800770  -29.917750
  H      5.323890   -8.968060  -30.765080
  H      4.361270   -8.367340  -29.264150
  H      3.963960   -7.369800  -32.352780
  H      2.903790   -6.819980  -30.897010
  H     -3.595620   10.284550   29.888210
  H     -1.156550    7.971640   33.064210
  H      6.872820   -0.636610  -35.470380
  H      9.502310   -3.673720  -33.179680

----------------------------
CARTESIAN COORDINATES (A.U.)
----------------------------
  NO LB      ZA    FRAG    MASS        X           Y           Z
   0 C     4.0000    0    12.011         -6.122353625939410         18.173288360045945         57.883577598517661
   1 C     4.0000    0    12.011         -7.416097931744578         16.139829656378645         58.954712165746905
   2 C     4.0000    0    12.011         -5.996838016124361         14.783818874460772         60.811368092324535
   3 C     4.0000    0    12.011         -3.570146201249385         15.751434244073810         61.208286169493363
   4 S     6.0000    0    32.060         -3.311896227787707         18.199347683432720         59.268444498500521
   5 H     1.0000    0     1.008         -9.395945104992535         15.507187141264486         58.367082927142761
   6 C     4.0000    0    12.011         -7.095241331466089         12.394713712389491         62.341063603211111
   7 C     4.0000    0    12.011         -8.650013508149799          9.897931955207374         61.030897577302170
   8 C     4.0000    0    12.011        -11.849187572049102          9.865088514999822         60.720888005032386
   9 H     1.0000    0     1.008        -12.727399998266327         10.325180136825631         62.662279251455047
  10 H     1.0000    0     1.008        -12.410417336562375         11.405385389497697         59.285924465239283
  11 H     1.0000    0     1.008         -8.142697630237299          8.161368124440441         62.252454344791545
  12 H     1.0000    0     1.008         -7.829607804369227          9.635052152717590         59.029450834343493
  13 H     1.0000    0     1.008         -8.482905026127142         13.151378953672898         63.892283094763044
  14 H     1.0000    0     1.008         -5.434871258418859         11.401927190672621         63.389219100651879
  15 C     4.0000    0    12.011        -12.818333619830616          7.100003441323570         59.743370470477608
  16 C     4.0000    0    12.011        -15.964878810900213          6.551604917259622         59.550316048636212
  17 C     4.0000    0    12.011        -17.249250075081132          5.232670562089285         62.149766626674271
  18 H     1.0000    0     1.008        -18.947887102340268          3.986887505563039         61.558074476882183
  19 H     1.0000    0     1.008        -17.934011236968839          6.812481610047452         63.497519305386895
  20 H     1.0000    0     1.008        -15.759163223961547          3.996052677312557         63.164568457851317
  21 H     1.0000    0     1.008        -16.304991720483361          5.196954738158173         57.878475337956083
  22 H     1.0000    0     1.008        -16.971346949826675          8.443919975984347         59.173221198612225
  23 H     1.0000    0     1.008        -12.006904115186170          6.755317394496333         57.739145830102068
  24 H     1.0000    0     1.008        -12.003691580758504          5.572575601797700         61.084849258425628
  25 C     4.0000    0    12.011         13.717786567793116         -2.714516002332521        -65.936191983950948
  26 C     4.0000    0    12.011         12.350021689322253         -4.625955089532528        -64.739655190474679
  27 C     4.0000    0    12.011         13.880170734480968         -6.404187381552426        -63.399215751900314
  28 C     4.0000    0    12.011         16.469246716043795         -5.894301476097794        -63.538016136436831
  29 S     6.0000    0    32.060         16.725380196235484         -3.306586097351389        -65.287316721346400
  30 H     1.0000    0     1.008         10.199097609170405         -4.778078043313188        -64.799105974647844
  31 C     4.0000    0    12.011         12.801760721636127         -8.823925004254571        -61.853552055182114
  32 C     4.0000    0    12.011         10.281792024790798         -8.618266109099922        -59.832773413873419
  33 C     4.0000    0    12.011          9.559708771758149        -11.361071311657243        -58.256212694865603
  34 H     1.0000    0     1.008          8.976766053966122        -10.649608319497231        -56.256504499950125
  35 H     1.0000    0     1.008         11.491065572409685        -12.382524978825698        -58.061854361991799
  36 H     1.0000    0     1.008          8.544188844650208         -8.070585680966863        -61.018387590295617
  37 H     1.0000    0     1.008         10.710287425657443         -7.082334501971406        -58.363681420101699
  38 H     1.0000    0     1.008         14.434276231469356         -9.632236460778046        -60.599473100927952
  39 H     1.0000    0     1.008         12.251812622142365        -10.388051325301191        -63.293561163752784
  40 C     4.0000    0    12.011          7.482011579295751        -13.533708345087847        -59.000613613539855
  41 C     4.0000    0    12.011          8.108852635178769        -16.277496205234808        -57.423353695862481
  42 C     4.0000    0    12.011          6.126756687831447        -18.745761995056050        -57.761085550516896
  43 H     1.0000    0     1.008          6.060408403269472        -19.357674214481090        -59.857188675523680
  44 H     1.0000    0     1.008          4.128787040959186        -18.163972010205715        -57.092538238858232
  45 H     1.0000    0     1.008          6.851277687576855        -20.410497335472638        -56.536354043122529
  46 H     1.0000    0     1.008         10.060694067122011        -16.947177352573821        -58.137575688178025
  47 H     1.0000    0     1.008          8.241605896086737        -15.811981069404647        -55.301229041991597
  48 H     1.0000    0     1.008          7.490798805818485        -13.926903661772840        -61.137893871004799
  49 H     1.0000    0     1.008          5.487367850419191        -12.887894438820258        -58.386887257026252
  50 H     1.0000    0     1.008         -6.794737081649931         19.434982910619809         56.480531533126495
  51 H     1.0000    0     1.008         -2.185562760186623         15.064216438212005         62.482301734460393
  52 H     1.0000    0     1.008         12.987747567736657         -1.203018554115608        -67.029304066117689
  53 H     1.0000    0     1.008         17.956763539621249         -6.942324692709181        -62.700508411144270

--------------------------------
INTERNAL COORDINATES (ANGSTROEM)
--------------------------------
 C      0   0   0   0.000000     0.000     0.000
 C      1   0   0   1.395670     0.000     0.000
 C      2   1   0   1.429781   114.101     0.000
 C      3   2   1   1.398336   113.693     0.000
 S      1   2   3   1.658040   105.480     0.000
 H      2   1   3   1.142991   124.400   183.012
 C      3   2   1   1.609802   123.369   179.032
 C      7   3   2   1.703899   125.361    47.242
 C      8   7   3   1.700949   121.854   268.886
 H      9   8   7   1.153551   108.235   307.998
 H      9   8   7   1.152904   108.221    66.567
 H      8   7   3   1.155162   106.078   147.644
 H      8   7   3   1.153067   106.588    31.235
 H      7   3   2   1.171914   108.067   283.836
 H      7   3   2   1.164320   108.750   167.950
 C      9   8   7   1.634505   110.607   187.249
 C     16   9   8   1.693264   118.755   174.619
 C     17  16   9   1.685605   114.723   267.284
 H     18  17  16   1.157852   109.153   210.400
 H     18  17  16   1.157089   109.276    90.593
 H     18  17  16   1.156879   109.767   330.332
 H     17  16   9   1.152806   107.842   147.157
 H     17  16   9   1.151618   108.434    28.548
 H     16   9   8   1.158662   108.321   296.004
 H     16   9   8   1.158915   108.288    53.181
 C     24  16   9  67.034507   168.723   268.792
 C     26  24  16   1.395672    60.392   272.984
 C     27  26  24   1.429782   114.102   278.580
 C     28  27  26   1.398326   113.693     0.000
 S     26  24  16   1.658040    90.394   165.341
 H     27  26  24   1.141497   123.760    98.292
 C     28  27  26   1.623046   124.759   180.412
 C     32  28  27   1.712776   122.565   313.872
 C     33  32  28   1.717172   115.016   183.487
 H     34  33  32   1.164771   103.127   142.262
 H     34  33  32   1.160731   103.930    30.014
 H     33  32  28   1.150264   107.328    63.983
 H     33  32  28   1.147342   108.311   304.746
 H     32  28  27   1.170330   108.335   192.773
 H     32  28  27   1.162091   108.633    76.591
 C     34  33  32   1.638853   128.717   264.873
 C     41  34  33   1.707288   110.412   161.876
 C     42  41  34   1.684671   119.113   176.658
 H     43  42  41   1.156042   109.747    60.801
 H     43  42  41   1.156627   109.287   300.227
 H     43  42  41   1.158915   108.908   180.652
 H     42  41  34   1.155531   105.937   296.468
 H     42  41  34   1.151826   107.854    53.372
 H     41  34  33   1.149989   111.138    40.747
 H     41  34  33   1.156024   109.733   279.514
 H      1   2   3   1.060008   127.260   180.000
 H      4   3   2   1.060001   127.206   179.999
 H     26  24  16   1.060004   113.726    33.707
 H     29  28  27   1.060004   127.206   180.000

---------------------------
INTERNAL COORDINATES (A.U.)
---------------------------
 C      0   0   0   0.000000     0.000     0.000
 C      1   0   0   2.637434     0.000     0.000
 C      2   1   0   2.701895   114.101     0.000
 C      3   2   1   2.642472   113.693     0.000
 S      1   2   3   3.133242   105.480     0.000
 H      2   1   3   2.159940   124.400   183.012
 C      3   2   1   3.042085   123.369   179.032
 C      7   3   2   3.219902   125.361    47.242
 C      8   7   3   3.214327   121.854   268.886
 H      9   8   7   2.179895   108.235   307.998
 H      9   8   7   2.178672   108.221    66.567
 H      8   7   3   2.182939   106.078   147.644
 H      8   7   3   2.178981   106.588    31.235
 H      7   3   2   2.214596   108.067   283.836
 H      7   3   2   2.200246   108.750   167.950
 C      9   8   7   3.088767   110.607   187.249
 C     16   9   8   3.199806   118.755   174.619
 C     17  16   9   3.185332   114.723   267.284
 H     18  17  16   2.188023   109.153   210.400
 H     18  17  16   2.186581   109.276    90.593
 H     18  17  16   2.186185   109.767   330.332
 H     17  16   9   2.178487   107.842   147.157
 H     17  16   9   2.176243   108.434    28.548
 H     16   9   8   2.189553   108.321   296.004
 H     16   9   8   2.190033   108.288    53.181
 C     24  16   9 126.676859   168.723   268.792
 C     26  24  16   2.637438    60.392   272.984
 C     27  26  24   2.701896   114.102   278.580
 C     28  27  26   2.642454   113.693     0.000
 S     26  24  16   3.133242    90.394   165.341
 H     27  26  24   2.157116   123.760    98.292
 C     28  27  26   3.067112   124.759   180.412
 C     32  28  27   3.236678   122.565   313.872
 C     33  32  28   3.244985   115.016   183.487
 H     34  33  32   2.201099   103.127   142.262
 H     34  33  32   2.193463   103.930    30.014
 H     33  32  28   2.173683   107.328    63.983
 H     33  32  28   2.168162   108.311   304.746
 H     32  28  27   2.211603   108.335   192.773
 H     32  28  27   2.196033   108.633    76.591
 C     34  33  32   3.096984   128.717   264.873
 C     41  34  33   3.226306   110.412   161.876
 C     42  41  34   3.183568   119.113   176.658
 H     43  42  41   2.184602   109.747    60.801
 H     43  42  41   2.185708   109.287   300.227
 H     43  42  41   2.190032   108.908   180.652
 H     42  41  34   2.183637   105.937   296.468
 H     42  41  34   2.176635   107.854    53.372
 H     41  34  33   2.173165   111.138    40.747
 H     41  34  33   2.184568   109.733   279.514
 H      1   2   3   2.003125   127.260   180.000
 H      4   3   2   2.003111   127.206   179.999
 H     26  24  16   2.003116   113.726    33.707
 H     29  28  27   2.003117   127.206   180.000

----------------------------
SLATER BASIS SET DIM= 120
----------------------------
  0 C     2 shells
 l=0 nsto= 1
    2       1.625000000000        1.000000000000
 l=1 nsto= 1
    2       1.625000000000        1.000000000000
  1 C     2 shells
 l=0 nsto= 1
    2       1.625000000000        1.000000000000
 l=1 nsto= 1
    2       1.625000000000        1.000000000000
  2 C     2 shells
 l=0 nsto= 1
    2       1.625000000000        1.000000000000
 l=1 nsto= 1
    2       1.625000000000        1.000000000000
  3 C     2 shells
 l=0 nsto= 1
    2       1.625000000000        1.000000000000
 l=1 nsto= 1
    2       1.625000000000        1.000000000000
  4 S     2 shells
 l=0 nsto= 1
    3       1.925000000000        1.000000000000
 l=1 nsto= 1
    3       1.925000000000        1.000000000000
  5 H     1 shells
 l=0 nsto= 1
    1       1.200000000000        1.000000000000
  6 C     2 shells
 l=0 nsto= 1
    2       1.625000000000        1.000000000000
 l=1 nsto= 1
    2       1.625000000000        1.000000000000
  7 C     2 shells
 l=0 nsto= 1
    2       1.625000000000        1.000000000000
 l=1 nsto= 1
    2       1.625000000000        1.000000000000
  8 C     2 shells
 l=0 nsto= 1
    2       1.625000000000        1.000000000000
 l=1 nsto= 1
    2       1.625000000000        1.000000000000
  9 H     1 shells
 l=0 nsto= 1
    1       1.200000000000        1.000000000000
 10 H     1 shells
 l=0 nsto= 1
    1       1.200000000000        1.000000000000
 11 H     1 shells
 l=0 nsto= 1
    1       1.200000000000        1.000000000000
 12 H     1 shells
 l=0 nsto= 1
    1       1.200000000000        1.000000000000
 13 H     1 shells
 l=0 nsto= 1
    1       1.200000000000        1.000000000000
 14 H     1 shells
 l=0 nsto= 1
    1       1.200000000000        1.000000000000
 15 C     2 shells
 l=0 nsto= 1
    2       1.625000000000        1.000000000000
 l=1 nsto= 1
    2       1.625000000000        1.000000000000
 16 C     2 shells
 l=0 nsto= 1
    2       1.625000000000        1.000000000000
 l=1 nsto= 1
    2       1.625000000000        1.000000000000
 17 C     2 shells
 l=0 nsto= 1
    2       1.625000000000        1.000000000000
 l=1 nsto= 1
    2       1.625000000000        1.000000000000
 18 H     1 shells
 l=0 nsto= 1
    1       1.200000000000        1.000000000000
 19 H     1 shells
 l=0 nsto= 1
    1       1.200000000000        1.000000000000
 20 H     1 shells
 l=0 nsto= 1
    1       1.200000000000        1.000000000000
 21 H     1 shells
 l=0 nsto= 1
    1       1.200000000000        1.000000000000
 22 H     1 shells
 l=0 nsto= 1
    1       1.200000000000        1.000000000000
 23 H     1 shells
 l=0 nsto= 1
    1       1.200000000000        1.000000000000
 24 H     1 shells
 l=0 nsto= 1
    1       1.200000000000        1.000000000000
 25 C     2 shells
 l=0 nsto= 1
    2       1.625000000000        1.000000000000
 l=1 nsto= 1
    2       1.625000000000        1.000000000000
 26 C     2 shells
 l=0 nsto= 1
    2       1.625000000000        1.000000000000
 l=1 nsto= 1
    2       1.625000000000        1.000000000000
 27 C     2 shells
 l=0 nsto= 1
    2       1.625000000000        1.000000000000
 l=1 nsto= 1
    2       1.625000000000        1.000000000000
 28 C     2 shells
 l=0 nsto= 1
    2       1.625000000000        1.000000000000
 l=1 nsto= 1
    2       1.625000000000        1.000000000000
 29 S     2 shells
 l=0 nsto= 1
    3       1.925000000000        1.000000000000
 l=1 nsto= 1
    3       1.925000000000        1.000000000000
 30 H     1 shells
 l=0 nsto= 1
    1       1.200000000000        1.000000000000
 31 C     2 shells
 l=0 nsto= 1
    2       1.625000000000        1.000000000000
 l=1 nsto= 1
    2       1.625000000000        1.000000000000
 32 C     2 shells
 l=0 nsto= 1
    2       1.625000000000        1.000000000000
 l=1 nsto= 1
    2       1.625000000000        1.000000000000
 33 C     2 shells
 l=0 nsto= 1
    2       1.625000000000        1.000000000000
 l=1 nsto= 1
    2       1.625000000000        1.000000000000
 34 H     1 shells
 l=0 nsto= 1
    1       1.200000000000        1.000000000000
 35 H     1 shells
 l=0 nsto= 1
    1       1.200000000000        1.000000000000
 36 H     1 shells
 l=0 nsto= 1
    1       1.200000000000        1.000000000000
 37 H     1 shells
 l=0 nsto= 1
    1       1.200000000000        1.000000000000
 38 H     1 shells
 l=0 nsto= 1
    1       1.200000000000        1.000000000000
 39 H     1 shells
 l=0 nsto= 1
    1       1.200000000000        1.000000000000
 40 C     2 shells
 l=0 nsto= 1
    2       1.625000000000        1.000000000000
 l=1 nsto= 1
    2       1.625000000000        1.000000000000
 41 C     2 shells
 l=0 nsto= 1
    2       1.625000000000        1.000000000000
 l=1 nsto= 1
    2       1.625000000000        1.000000000000
 42 C     2 shells
 l=0 nsto= 1
    2       1.625000000000        1.000000000000
 l=1 nsto= 1
    2       1.625000000000        1.000000000000
 43 H     1 shells
 l=0 nsto= 1
    1       1.200000000000        1.000000000000
 44 H     1 shells
 l=0 nsto= 1
    1       1.200000000000        1.000000000000
 45 H     1 shells
 l=0 nsto= 1
    1       1.200000000000        1.000000000000
 46 H     1 shells
 l=0 nsto= 1
    1       1.200000000000        1.000000000000
 47 H     1 shells
 l=0 nsto= 1
    1       1.200000000000        1.000000000000
 48 H     1 shells
 l=0 nsto= 1
    1       1.200000000000        1.000000000000
 49 H     1 shells
 l=0 nsto= 1
    1       1.200000000000        1.000000000000
 50 H     1 shells
 l=0 nsto= 1
    1       1.200000000000        1.000000000000
 51 H     1 shells
 l=0 nsto= 1
    1       1.200000000000        1.000000000000
 52 H     1 shells
 l=0 nsto= 1
    1       1.200000000000        1.000000000000
 53 H     1 shells
 l=0 nsto= 1
    1       1.200000000000        1.000000000000
------------------------------------------------------------------------------
                           ORCA NDO INTEGRAL CALCULATION
------------------------------------------------------------------------------

--------------
NDO PARAMETERS
--------------

Gamma integral treatment              ... Mataga-Nishimoto
Nuclear repulsuion treatment          ... Direct (ZA*ZB/RAB)
Interaction factors:
s-s (sigma) =    1.0000
s-p (sigma) =    1.0000
s-d (sigma) =    1.0000
p-p (sigma) =    1.2670  p-p(pi) =    0.5850
p-d (sigma) =    1.0000  p-d(pi) =    1.0000
d-d (sigma) =    1.0000  d-d(pi) =    1.0000 d-d (delta) =    1.0000

fGamma parameter for Mataga-Nishimoto gamma integrals:    1.2000

--------------------------
Parameters for Element H :
--------------------------
 One-electron parameters (in eV)
  U(s)  =   -13.060000 Beta(s) =    12.000000 Neff(s) =     1.000000
 One-center electron repulsion parameters (in eV)
  G(s,s)=    12.850000
--------------------------
Parameters for Element C :
--------------------------
 One-electron parameters (in eV)
  U(s)  =   -50.870766 Beta(s) =    17.000000 Neff(s) =     2.000000
  U(p)  =   -41.599980 Beta(p) =    17.000000 Neff(p) =     2.000000 
 One-center electron repulsion parameters (in eV)
  G(s,s)=    11.110000
  G(s,p)=    11.110000 G(p,p)  =    11.110000
 Slater-Condon parameters (in eV)
 F2(p,p)=     4.5098 G1(s,p)=    6.8977
--------------------------
Parameters for Element S :
--------------------------
 One-electron parameters (in eV)
  U(s)  =   -69.509597 Beta(s) =    15.000000 Neff(s) =     2.000000
  U(p)  =   -60.725746 Beta(p) =    15.000000 Neff(p) =     4.000000 
 One-center electron repulsion parameters (in eV)
  G(s,s)=    10.090000
  G(s,p)=    10.090000 G(p,p)  =    10.090000
 Slater-Condon parameters (in eV)
 F2(p,p)=     4.5377 G1(s,p)=    3.0756

 Number of atoms                    ....   54
 Number of basis functions          ....  120

 Overlap integrals                  .... done
 One electron matrix                .... done
 Nuclear repulsion                  .... done
 Integral list                      .... done
 Electron-electron repulsion        .... done
-------------------------------------------------------------------------------
                                 ORCA SCF
-------------------------------------------------------------------------------

------------
SCF SETTINGS
------------
Hamiltonian:
 ZDO-Hamiltonian        Method          .... INDO


General Settings:
 Integral files         IntName         .... /Users/mattyjones/GoogleDrive/Boise/Code/MorphCT/tests/output_EZ/donor_polymer/chromophores/input_orca/pair/00008-00014
 Hartree-Fock type      HFTyp           .... RHF
 Total Charge           Charge          ....    0
 Multiplicity           Mult            ....    1
 Number of Electrons    NEL             ....  124
 Basis Dimension        Dim             ....  120
 Nuclear Repulsion      ENuc            ....    606.2463574778 Eh

Convergence Acceleration:
 DIIS                   CNVDIIS         .... on
   Start iteration      DIISMaxIt       ....    12
   Startup error        DIISStart       ....  0.200000
   # of expansion vecs  DIISMaxEq       ....     5
   Bias factor          DIISBfac        ....   1.050
   Max. coefficient     DIISMaxC        ....  10.000
 Newton-Raphson         CNVNR           .... off
 SOSCF                  CNVSOSCF        .... on
   Start iteration      SOSCFMaxIt      ....   150
   Startup grad/error   SOSCFStart      ....  0.003300
 Level Shifting         CNVShift        .... on
   Level shift para.    LevelShift      ....    0.2500
   Turn off err/grad.   ShiftErr        ....    0.0010
 Zerner damping         CNVZerner       .... off
 Static damping         CNVDamp         .... on
   Fraction old density DampFac         ....    0.7000
   Max. Damping (<1)    DampMax         ....    0.9800
   Min. Damping (>=0)   DampMin         ....    0.0000
   Turn off err/grad.   DampErr         ....    0.1000
 Fernandez-Rico         CNVRico         .... off

SCF Procedure:
 Maximum # iterations   MaxIter         ....   125
 SCF integral mode      SCFMode         .... Conventional
 Integral Buffer length BufferLength    .... 1048576
 Integral index format  IndFormat       ....     0
 Integral value format  ValFormat       ....     0
 Integral Storage       Thresh          ....  1.000e-08 Eh

Convergence Tolerance:
 Convergence Check Mode ConvCheckMode   .... Total+1el-Energy
 Energy Change          TolE            ....  1.000e-06 Eh
 1-El. energy change                    ....  1.000e-03 Eh
 Orbital Gradient       TolG            ....  5.000e-05
 Orbital Rotation angle TolX            ....  5.000e-05
 DIIS Error             TolErr          ....  1.000e-06


Diagonalization of the overlap matrix:
Smallest eigenvalue                        ... 1.698e-01
Time for diagonalization                   ...    0.003 sec
Threshold for overlap eigenvalues          ... 1.000e-08
Number of eigenvalues below threshold      ... 0
Time for construction of square roots      ...    0.001 sec
Total time needed                          ...    0.005 sec

-------------------------------
INITIAL GUESS: EXTENDED HUECKEL
-------------------------------
EHT matrix was read from disk
EHT matrix was diagonalized
Initial density was built
                      ------------------
                      INITIAL GUESS DONE
                      ------------------

 InCore treatment chosen:
   Memory dedicated               ...    1024 MB
   Memory needed                  ...      0 MB
   Number of tiny    integrals    ...       0
   Number of small   integrals    ...       0
   Number of regular integrals    ...    7392

--------------
SCF ITERATIONS
--------------
ITER       Energy         Delta-E        Max-DP      RMS-DP      [F,P]     Damp
  0    -22.1183595507   0.000000000000 0.04185159  0.00144345  0.1110106 0.7000
  1    -22.1599190315  -0.041559480759 0.03986303  0.00135877  0.0758900 0.7000
                               ***Turning on DIIS***
  2    -22.1906812094  -0.030762177922 0.10218149  0.00348551  0.0458918 0.0000
  3    -22.2712424894  -0.080561279984 0.01858745  0.00071951  0.0212224 0.0000
  4    -22.2560813445   0.015161144899 0.01156180  0.00049235  0.0070025 0.0000
  5    -22.2729827475  -0.016901402986 0.00818748  0.00033372  0.0040603 0.0000
  6    -22.2757150644  -0.002732316955 0.00599225  0.00023726  0.0022100 0.0000
                      *** Initiating the SOSCF procedure ***
                           *** Shutting down DIIS ***
                      *** Re-Reading the Fockian *** 
                      *** Removing any level shift *** 
ITER      Energy       Delta-E        Grad      Rot      Max-DP    RMS-DP
  7    -22.27153944   0.0041756230  0.003008  0.003008  0.003562  0.000133
  8    -22.26962757   0.0019118743  0.000798  0.002190  0.001770  0.000062
  9    -22.26964190  -0.0000143320  0.000354  0.002144  0.001975  0.000065
 10    -22.26964713  -0.0000052358  0.000027  0.000059  0.000111  0.000004
                 **** Energy Check signals convergence ****
              ***Rediagonalizing the Fockian in SOSCF/NRSCF***

               *****************************************************
               *                     SUCCESS                       *
               *           SCF CONVERGED AFTER  11 CYCLES          *
               *****************************************************


----------------
TOTAL SCF ENERGY
----------------

Total Energy       :          -22.26964718 Eh            -605.98791 eV

Components:
Nuclear Repulsion  :          606.24635748 Eh           16496.80207 eV
Electronic Energy  :         -628.51600466 Eh          -17102.78998 eV

One Electron Energy:        -1166.64693608 Eh          -31746.07707 eV
Two Electron Energy:          538.13093142 Eh           14643.28709 eV


---------------
SCF CONVERGENCE
---------------

  Last Energy change         ...   -4.3167e-08  Tolerance :   1.0000e-06
  Last MAX-Density change    ...    3.8727e-05  Tolerance :   1.0000e-05
  Last RMS-Density change    ...    1.1551e-06  Tolerance :   1.0000e-06
  Last Orbital Gradient      ...    7.2471e-06  Tolerance :   5.0000e-05
  Last Orbital Rotation      ...    1.8422e-05  Tolerance :   5.0000e-05

             **** THE GBW FILE WAS UPDATED (/Users/mattyjones/GoogleDrive/Boise/Code/MorphCT/tests/output_EZ/donor_polymer/chromophores/input_orca/pair/00008-00014.gbw) ****
             **** DENSITY FILE WAS UPDATED (/Users/mattyjones/GoogleDrive/Boise/Code/MorphCT/tests/output_EZ/donor_polymer/chromophores/input_orca/pair/00008-00014.scfp.tmp) ****
             **** ENERGY FILE WAS UPDATED (/Users/mattyjones/GoogleDrive/Boise/Code/MorphCT/tests/output_EZ/donor_polymer/chromophores/input_orca/pair/00008-00014.en.tmp) ****
----------------
ORBITAL ENERGIES
----------------

  NO   OCC          E(Eh)            E(eV) 
   0   2.0000      -1.556326       -42.3498 
   1   2.0000      -1.555262       -42.3208 
   2   2.0000      -1.396296       -37.9951 
   3   2.0000      -1.387216       -37.7481 
   4   2.0000      -1.291165       -35.1344 
   5   2.0000      -1.289420       -35.0869 
   6   2.0000      -1.188437       -32.3390 
   7   2.0000      -1.181973       -32.1631 
   8   2.0000      -1.115691       -30.3595 
   9   2.0000      -1.109114       -30.1805 
  10   2.0000      -1.042097       -28.3569 
  11   2.0000      -1.032129       -28.0856 
  12   2.0000      -0.968421       -26.3521 
  13   2.0000      -0.947246       -25.7759 
  14   2.0000      -0.891383       -24.2558 
  15   2.0000      -0.890129       -24.2216 
  16   2.0000      -0.871555       -23.7162 
  17   2.0000      -0.868551       -23.6345 
  18   2.0000      -0.832320       -22.6486 
  19   2.0000      -0.831554       -22.6277 
  20   2.0000      -0.775470       -21.1016 
  21   2.0000      -0.771391       -20.9906 
  22   2.0000      -0.735845       -20.0234 
  23   2.0000      -0.727105       -19.7855 
  24   2.0000      -0.699491       -19.0341 
  25   2.0000      -0.687838       -18.7170 
  26   2.0000      -0.676637       -18.4122 
  27   2.0000      -0.668933       -18.2026 
  28   2.0000      -0.648642       -17.6505 
  29   2.0000      -0.629692       -17.1348 
  30   2.0000      -0.618598       -16.8329 
  31   2.0000      -0.612895       -16.6777 
  32   2.0000      -0.610504       -16.6127 
  33   2.0000      -0.588638       -16.0177 
  34   2.0000      -0.578240       -15.7347 
  35   2.0000      -0.577025       -15.7017 
  36   2.0000      -0.565449       -15.3866 
  37   2.0000      -0.562005       -15.2929 
  38   2.0000      -0.553922       -15.0730 
  39   2.0000      -0.549690       -14.9578 
  40   2.0000      -0.534719       -14.5504 
  41   2.0000      -0.531868       -14.4729 
  42   2.0000      -0.515822       -14.0362 
  43   2.0000      -0.512673       -13.9505 
  44   2.0000      -0.509159       -13.8549 
  45   2.0000      -0.504394       -13.7253 
  46   2.0000      -0.499928       -13.6037 
  47   2.0000      -0.491971       -13.3872 
  48   2.0000      -0.487513       -13.2659 
  49   2.0000      -0.485666       -13.2156 
  50   2.0000      -0.483236       -13.1495 
  51   2.0000      -0.481539       -13.1033 
  52   2.0000      -0.469745       -12.7824 
  53   2.0000      -0.469503       -12.7758 
  54   2.0000      -0.464601       -12.6424 
  55   2.0000      -0.460520       -12.5314 
  56   2.0000      -0.441060       -12.0019 
  57   2.0000      -0.439575       -11.9614 
  58   2.0000      -0.357689        -9.7332 
  59   2.0000      -0.357047        -9.7157 
  60   2.0000      -0.305031        -8.3003 
  61   2.0000      -0.304993        -8.2993 
  62   0.0000       0.007458         0.2029 
  63   0.0000       0.007491         0.2038 
  64   0.0000       0.062757         1.7077 
  65   0.0000       0.065612         1.7854 
  66   0.0000       0.074708         2.0329 
  67   0.0000       0.075180         2.0458 
  68   0.0000       0.084510         2.2996 
  69   0.0000       0.088687         2.4133 
  70   0.0000       0.104026         2.8307 
  71   0.0000       0.104795         2.8516 
  72   0.0000       0.108038         2.9399 
  73   0.0000       0.108254         2.9457 
  74   0.0000       0.123901         3.3715 
  75   0.0000       0.124090         3.3767 
  76   0.0000       0.140973         3.8361 
  77   0.0000       0.141173         3.8415 
  78   0.0000       0.155450         4.2300 
  79   0.0000       0.155540         4.2325 
  80   0.0000       0.165201         4.4954 
  81   0.0000       0.166199         4.5225 
  82   0.0000       0.172191         4.6856 
  83   0.0000       0.172301         4.6886 
  84   0.0000       0.204775         5.5722 
  85   0.0000       0.204972         5.5776 
  86   0.0000       0.233321         6.3490 
  87   0.0000       0.233840         6.3631 
  88   0.0000       0.234412         6.3787 
  89   0.0000       0.237024         6.4497 
  90   0.0000       0.237871         6.4728 
  91   0.0000       0.238335         6.4854 
  92   0.0000       0.239082         6.5058 
  93   0.0000       0.240161         6.5351 
  94   0.0000       0.240624         6.5477 
  95   0.0000       0.241750         6.5783 
  96   0.0000       0.241984         6.5847 
  97   0.0000       0.242810         6.6072 
  98   0.0000       0.243323         6.6211 
  99   0.0000       0.243594         6.6285 
 100   0.0000       0.245610         6.6834 
 101   0.0000       0.248610         6.7650 
 102   0.0000       0.257547         7.0082 
 103   0.0000       0.258013         7.0209 
 104   0.0000       0.265277         7.2186 
 105   0.0000       0.266711         7.2576 
 106   0.0000       0.270636         7.3644 
 107   0.0000       0.283148         7.7049 
 108   0.0000       0.298425         8.1206 
 109   0.0000       0.302195         8.2231 
 110   0.0000       0.309895         8.4327 
 111   0.0000       0.309958         8.4344 
 112   0.0000       0.340572         9.2674 
 113   0.0000       0.343917         9.3584 
 114   0.0000       0.356627         9.7043 
 115   0.0000       0.356913         9.7121 
 116   0.0000       0.409672        11.1477 
 117   0.0000       0.412324        11.2199 
 118   0.0000       0.431059        11.7297 
 119   0.0000       0.431750        11.7485 
-------
TIMINGS
-------

Total SCF time: 0 days 0 hours 0 min 0 sec 

Total time                  ....       0.329 sec
Sum of individual times     ....       0.302 sec  ( 91.8%)

Fock matrix formation       ....       0.052 sec  ( 15.8%)
Diagonalization             ....       0.028 sec  (  8.6%)
Density matrix formation    ....       0.005 sec  (  1.6%)
Population analysis         ....       0.000 sec  (  0.0%)
Initial guess               ....       0.003 sec  (  1.0%)
Orbital Transformation      ....       0.000 sec  (  0.0%)
Orbital Orthonormalization  ....       0.000 sec  (  0.0%)
DIIS solution               ....       0.205 sec  ( 62.2%)
SOSCF solution              ....       0.009 sec  (  2.6%)

-------------------------   --------------------
FINAL SINGLE POINT ENERGY       -22.269647178047
-------------------------   --------------------


                            ***************************************
                            *     ORCA property calculations      *
                            ***************************************

                                    ---------------------
                                    Active property flags
                                    ---------------------
   (+) Dipole Moment


------------------------------------------------------------------------------
                       ORCA ELECTRIC PROPERTIES CALCULATION
------------------------------------------------------------------------------

Dipole Moment Calculation                       ... on
Quadrupole Moment Calculation                   ... off
Polarizability Calculation                      ... off
GBWName                                         ... /Users/mattyjones/GoogleDrive/Boise/Code/MorphCT/tests/output_EZ/donor_polymer/chromophores/input_orca/pair/00008-00014.gbw
Electron density file                           ... /Users/mattyjones/GoogleDrive/Boise/Code/MorphCT/tests/output_EZ/donor_polymer/chromophores/input_orca/pair/00008-00014.scfp.tmp

-------------
DIPOLE MOMENT
-------------
                                X             Y             Z
Electronic contribution:    188.93885     213.59500     -90.08042
Nuclear contribution   :   -101.17081    -115.80086      46.49682
                        -----------------------------------------
Total Dipole Moment    :     87.76804      97.79414     -43.58359
                        -----------------------------------------
Magnitude (a.u.)       :    138.44296
Magnitude (Debye)      :    351.89403


Timings for individual modules:

Sum of individual times         ...        0.406 sec (=   0.007 min)
STO integral calculation        ...        0.040 sec (=   0.001 min)   9.8 %
SCF iterations                  ...        0.366 sec (=   0.006 min)  90.2 %
                             ****ORCA TERMINATED NORMALLY****
TOTAL RUN TIME: 0 days 0 hours 0 minutes 0 seconds 719 msec

