
                                 *****************
                                 * O   R   C   A *
                                 *****************

           --- An Ab Initio, DFT and Semiempirical electronic structure package ---

                  #######################################################
                  #                        -***-                        #
                  #  Department of molecular theory and spectroscopy    #
                  #              Directorship: Frank Neese              #
                  # Max Planck Institute for Chemical Energy Conversion #
                  #                  D-45470 Muelheim/Ruhr              #
                  #                       Germany                       #
                  #                                                     #
                  #                  All rights reserved                #
                  #                        -***-                        #
                  #######################################################


                         Program Version 3.0.3 - RELEASE   -


 With contributions from (in alphabetic order):
   Ute Becker             : Parallelization
   Dmytro Bykov           : SCF Hessian
   Dmitry Ganyushin       : Spin-Orbit,Spin-Spin,Magnetic field MRCI
   Andreas Hansen         : Spin unrestricted coupled pair/coupled cluster methods
   Dimitrios Liakos       : Extrapolation schemes; parallel MDCI
   Robert Izsak           : Overlap fitted RIJCOSX, COSX-SCS-MP3
   Christian Kollmar      : KDIIS, OOCD, Brueckner-CCSD(T), CCSD density
   Simone Kossmann        : Meta GGA functionals, TD-DFT gradient, OOMP2, MP2 Hessian
   Taras Petrenko         : DFT Hessian,TD-DFT gradient, ASA and ECA modules, normal mode analysis, Resonance Raman, ABS, FL, XAS/XES, NRVS
   Christoph Reimann      : Effective Core Potentials
   Michael Roemelt        : Restricted open shell CIS
   Christoph Riplinger    : Improved optimizer, TS searches, QM/MM, DLPNO-CCSD
   Barbara Sandhoefer     : DKH picture change effects
   Igor Schapiro          : Molecular dynamics
   Kantharuban Sivalingam : CASSCF convergence, NEVPT2
   Boris Wezisla          : Elementary symmetry handling
   Frank Wennmohs         : Technical directorship


 We gratefully acknowledge several colleagues who have allowed us to
 interface, adapt or use parts of their codes:
   Stefan Grimme, W. Hujo, H. Kruse, T. Risthaus : VdW corrections, initial TS optimization,
                                                   DFT functionals, gCP
   Ed Valeev                                     : LibInt (2-el integral package), F12 methods
   Garnet Chan, S. Sharma, R. Olivares           : DMRG
   Ulf Ekstrom                                   : XCFun DFT Library
   Mihaly Kallay                                 : mrcc  (arbitrary order and MRCC methods)
   Andreas Klamt, Michael Diedenhofen            : otool_cosmo (COSMO solvation model)
   Frank Weinhold                                : gennbo (NPA and NBO analysis)
   Christopher J. Cramer and Donald G. Truhlar   : smd solvation model


 Your calculation uses the libint2 library for the computation of 2-el integrals
 For citations please refer to: http://libint.valeyev.net

 This ORCA versions uses:
   CBLAS   interface :  Fast vector & matrix operations
   LAPACKE interface :  Fast linear algebra routines
   SCALAPACK package :  Parallel linear algebra routines


leaving
================================================================================
                                        WARNINGS
                       Please study these warnings very carefully!
================================================================================
Now building the actual basis set

WARNING: Direct SCF is incompatible with Method<>HF and Method<>DFT
  ===> : conventional SCF is chosen

WARNING: The NDO methods need Guess=HUECKEL or Guess=HCORE or Guess=MOREAD
  ===> : Guess is set to Hueckel

WARNING: The NDO methods need %rel::SOCType==1
  ===> : %rel::SOCType is set to 1

WARNING: The NDO methods cannot have frozencore=1
  ===> : %method FrozenCore=0 end


INFO   : the flag for use of LIBINT has been found!

================================================================================
                                       INPUT FILE
================================================================================
NAME = /Users/mattyjones/GoogleDrive/Boise/Code/MorphCT/tests/output_EZ/donor_polymer/chromophores/input_orca/pair/00008-00025.inp
|  1> # ================================================================
|  2> # Orca input file made by Matty Jones
|  3> # ================================================================
|  4> ! ZINDO/S 
|  5> ! NOPOP
|  6> ! NOMOPRINT
|  7> * xyz 0   1
|  8>  C  28.48136  -3.03471  -4.38198
|  9>  C  27.79675  -4.11077  -3.81515
| 10>  C  28.54779  -4.82834  -2.83265
| 11>  C  29.83193  -4.31630  -2.62261
| 12>  S  29.96859  -3.02092  -3.64913
| 13>  H  26.74905  -4.44556  -4.12612
| 14>  C  27.96653  -6.09260  -2.02318
| 15>  C  27.14378  -7.41384  -2.71649
| 16>  C  25.45085  -7.43122  -2.88054
| 17>  H  24.98613  -7.18775  -1.85319
| 18>  H  25.15386  -6.61613  -3.63989
| 19>  H  27.41224  -8.33279  -2.07007
| 20>  H  27.57792  -7.55295  -3.77561
| 21>  H  27.23222  -5.69219  -1.20231
| 22>  H  28.84516  -6.61797  -1.46852
| 23>  C  24.93801  -8.89444  -3.39782
| 24>  C  23.27292  -9.18465  -3.49998
| 25>  C  22.59327  -9.88259  -2.12440
| 26>  H  21.69438  -10.54183  -2.43752
| 27>  H  22.23090  -9.04659  -1.41121
| 28>  H  23.38178  -10.53698  -1.58739
| 29>  H  23.09295  -9.90149  -4.38468
| 30>  H  22.74032  -8.18327  -3.69953
| 31>  H  25.36739  -9.07684  -4.45841
| 32>  H  25.36909  -9.70272  -2.68794
| 33>  C  -22.45416  9.15770  1.29956
| 34>  C  -23.37628  8.49065  2.10743
| 35>  C  -24.12638  9.35000  2.96947
| 36>  C  -23.79490  10.70244  2.84166
| 37>  S  -22.60787  10.76296  1.68506
| 38>  H  -23.31517  7.37000  2.30342
| 39>  C  -25.25074  8.76259  3.98338
| 40>  C  -26.41404  7.74046  3.24010
| 41>  C  -27.74106  6.83112  3.83383
| 42>  H  -28.04736  7.31922  4.83608
| 43>  H  -28.60252  6.96904  3.07463
| 44>  H  -25.78015  6.96051  2.72396
| 45>  H  -26.89995  8.43291  2.44457
| 46>  H  -25.84410  9.62890  4.48043
| 47>  H  -24.73962  8.14169  4.82032
| 48>  C  -27.51566  5.23058  4.08147
| 49>  C  -27.61535  4.24785  2.69434
| 50>  C  -29.11055  3.66619  2.18080
| 51>  H  -28.94567  2.72659  1.52345
| 52>  H  -29.63999  4.48330  1.55461
| 53>  H  -29.75981  3.39134  3.09634
| 54>  H  -26.95069  3.32530  2.89672
| 55>  H  -27.18178  4.85200  1.82198
| 56>  H  -28.32035  4.84505  4.81752
| 57>  H  -26.47212  5.05734  4.54597
| 58>  H  28.12556  -2.36705  -5.12443
| 59>  H  30.56462  -4.67996  -1.94844
| 60>  H  -21.79463  8.72855  0.58931
| 61>  H  -24.21446  11.51819  3.37281
| 62> *
| 63> 
| 64>                          ****END OF INPUT****
================================================================================

                       ****************************
                       * Single Point Calculation *
                       ****************************

---------------------------------
CARTESIAN COORDINATES (ANGSTROEM)
---------------------------------
  C     28.481360   -3.034710   -4.381980
  C     27.796750   -4.110770   -3.815150
  C     28.547790   -4.828340   -2.832650
  C     29.831930   -4.316300   -2.622610
  S     29.968590   -3.020920   -3.649130
  H     26.749050   -4.445560   -4.126120
  C     27.966530   -6.092600   -2.023180
  C     27.143780   -7.413840   -2.716490
  C     25.450850   -7.431220   -2.880540
  H     24.986130   -7.187750   -1.853190
  H     25.153860   -6.616130   -3.639890
  H     27.412240   -8.332790   -2.070070
  H     27.577920   -7.552950   -3.775610
  H     27.232220   -5.692190   -1.202310
  H     28.845160   -6.617970   -1.468520
  C     24.938010   -8.894440   -3.397820
  C     23.272920   -9.184650   -3.499980
  C     22.593270   -9.882590   -2.124400
  H     21.694380  -10.541830   -2.437520
  H     22.230900   -9.046590   -1.411210
  H     23.381780  -10.536980   -1.587390
  H     23.092950   -9.901490   -4.384680
  H     22.740320   -8.183270   -3.699530
  H     25.367390   -9.076840   -4.458410
  H     25.369090   -9.702720   -2.687940
  C    -22.454160    9.157700    1.299560
  C    -23.376280    8.490650    2.107430
  C    -24.126380    9.350000    2.969470
  C    -23.794900   10.702440    2.841660
  S    -22.607870   10.762960    1.685060
  H    -23.315170    7.370000    2.303420
  C    -25.250740    8.762590    3.983380
  C    -26.414040    7.740460    3.240100
  C    -27.741060    6.831120    3.833830
  H    -28.047360    7.319220    4.836080
  H    -28.602520    6.969040    3.074630
  H    -25.780150    6.960510    2.723960
  H    -26.899950    8.432910    2.444570
  H    -25.844100    9.628900    4.480430
  H    -24.739620    8.141690    4.820320
  C    -27.515660    5.230580    4.081470
  C    -27.615350    4.247850    2.694340
  C    -29.110550    3.666190    2.180800
  H    -28.945670    2.726590    1.523450
  H    -29.639990    4.483300    1.554610
  H    -29.759810    3.391340    3.096340
  H    -26.950690    3.325300    2.896720
  H    -27.181780    4.852000    1.821980
  H    -28.320350    4.845050    4.817520
  H    -26.472120    5.057340    4.545970
  H     28.125560   -2.367050   -5.124430
  H     30.564620   -4.679960   -1.948440
  H    -21.794630    8.728550    0.589310
  H    -24.214460   11.518190    3.372810

----------------------------
CARTESIAN COORDINATES (A.U.)
----------------------------
  NO LB      ZA    FRAG    MASS        X           Y           Z
   0 C     4.0000    0    12.011         53.821970321619375         -5.734770795872162         -8.280742124320247
   1 C     4.0000    0    12.011         52.528244913075554         -7.768229499539463         -7.209588659829663
   2 C     4.0000    0    12.011         53.947504828695770         -9.124240281457336         -5.352932733252033
   3 C     4.0000    0    12.011         56.374177746309407         -8.156624911844299         -4.956014656083213
   4 S     6.0000    0    32.060         56.632427719771080         -5.708711472485387         -6.895856327076057
   5 H     1.0000    0     1.008         50.548378842566258         -8.400890911914960         -7.797236795695155
   6 C     4.0000    0    12.011         52.849082616092701        -11.513345443528618         -3.823256119626798
   7 C     4.0000    0    12.011         51.294310439408989        -14.010127200710734         -5.133422145535740
   8 C     4.0000    0    12.011         48.095136375509689        -14.042970640918282         -5.443431717805522
   9 H     1.0000    0     1.008         47.216942846553799        -13.582879019092477         -3.502021574121524
  10 H     1.0000    0     1.008         47.533906610996418        -12.502673766420411         -6.878395257598624
  11 H     1.0000    0     1.008         51.801626317321492        -15.746691031477665         -3.911865378046365
  12 H     1.0000    0     1.008         52.114716143189561        -14.273007003200517         -7.134868888494417
  13 H     1.0000    0     1.008         51.461437818692993        -10.756680202245210         -2.272036628074860
  14 H     1.0000    0     1.008         54.509452689139934        -12.506150862506825         -2.775100622186037
  15 C     4.0000    0    12.011         47.126009224989510        -16.808055714594538         -6.420949252360307
  16 C     4.0000    0    12.011         43.979445136658576        -17.356473135919824         -6.614003674201702
  17 C     4.0000    0    12.011         42.695092769738999        -18.675388593828824         -4.014534198902307
  18 H     1.0000    0     1.008         40.996436845218518        -19.921171650355067         -4.606245245955730
  19 H     1.0000    0     1.008         42.010312710589950        -17.095577545870658         -2.666800417451010
  20 H     1.0000    0     1.008         44.185160723597242        -19.912006478605552         -2.999732367725256
  21 H     1.0000    0     1.008         43.639351124336763        -18.711104417759934         -8.285844384881834
  22 H     1.0000    0     1.008         42.972976997732118        -15.464139179933762         -6.991098524225689
  23 H     1.0000    0     1.008         47.937419832372619        -17.152741761421776         -8.425173892735847
  24 H     1.0000    0     1.008         47.940632366800287        -18.335483554120405         -5.079470464412290
  25 C     4.0000    0    12.011        -42.432212967249214         17.305545016610647          2.455812494598702
  26 C     4.0000    0    12.011        -44.174767229860677         16.045003198978478          3.982465546409663
  27 C     4.0000    0    12.011        -45.592250802915011         17.668939352163701          5.611485062895139
  28 C     4.0000    0    12.011        -44.965844384042789         20.224680564724160          5.369959165718664
  29 S     6.0000    0    32.060        -42.722682771294245         20.339046790349073          3.184301919225344
  30 H     1.0000    0     1.008        -44.059286065816750         13.927281606999625          4.352832971396889
  31 C     4.0000    0    12.011        -47.716983278850705         16.558895323837021          7.527497287339235
  32 C     4.0000    0    12.011        -49.915301690441297         14.627349550572092          6.122901646518248
  33 C     4.0000    0    12.011        -52.423006064677480         12.908945987952141          7.244888744011312
  34 H     1.0000    0     1.008        -53.001829179497562         13.831321313919103          9.138866761733887
  35 H     1.0000    0     1.008        -54.050929540005278         13.169577016342560          5.810208663138298
  36 H     1.0000    0     1.008        -48.717423191409956         13.153457652420212          5.147538399756132
  37 H     1.0000    0     1.008        -50.833538516174976         15.935890412005861          4.619567815199875
  38 H     1.0000    0     1.008        -48.838271177674223         18.195983970914341          8.466785662204794
  39 H     1.0000    0     1.008        -46.751106457280876         15.385564367285317          9.109084677863287
  40 C     4.0000    0    12.011        -51.997061794091628          9.884363721565821          7.712860523815571
  41 C     4.0000    0    12.011        -52.185448592382237          8.027273157977389          5.091564711669385
  42 C     4.0000    0    12.011        -55.010967107821294          6.928095054920753          4.121114752855465
  43 H     1.0000    0     1.008        -54.699389062860355          5.152508379488345          2.878903278722331
  44 H     1.0000    0     1.008        -56.011463712164563          8.472209176209148          2.937787145055317
  45 H     1.0000    0     1.008        -56.237890697531007          6.408703827012498          5.851234617505728
  46 H     1.0000    0     1.008        -50.929423220210140          6.283906313128338          5.474007486652368
  47 H     1.0000    0     1.008        -51.366120032498003          9.168951201785914          3.443043221481842
  48 H     1.0000    0     1.008        -53.517705516796724          9.155817605155161          9.103793444688309
  49 H     1.0000    0     1.008        -50.025056984299447          9.556987566125303          8.590638313021993
  50 H     1.0000    0     1.008         53.149605763170200         -4.473076245298299         -9.683769292450080
  51 H     1.0000    0     1.008         57.758761187372173         -8.843842717706101         -3.682017988377523
  52 H     1.0000    0     1.008        -41.185881890144131         16.494569046238343          1.113634507981133
  53 H     1.0000    0     1.008        -45.758697880790791         21.766224658470424          6.373687201750936

--------------------------------
INTERNAL COORDINATES (ANGSTROEM)
--------------------------------
 C      0   0   0   0.000000     0.000     0.000
 C      1   0   0   1.395669     0.000     0.000
 C      2   1   0   1.429781   114.102     0.000
 C      3   2   1   1.398327   113.693     0.000
 S      1   2   3   1.658045   105.479     0.000
 H      2   1   3   1.143006   124.399   183.012
 C      3   2   1   1.609801   123.368   179.032
 C      7   3   2   1.703899   125.361    47.242
 C      8   7   3   1.700949   121.854   268.885
 H      9   8   7   1.153556   108.235   307.998
 H      9   8   7   1.152904   108.221    66.567
 H      8   7   3   1.155162   106.078   147.644
 H      8   7   3   1.153067   106.588    31.235
 H      7   3   2   1.171907   108.067   283.835
 H      7   3   2   1.164325   108.750   167.950
 C      9   8   7   1.634502   110.607   187.249
 C     16   9   8   1.693276   118.755   174.619
 C     17  16   9   1.685605   114.723   267.285
 H     18  17  16   1.157862   109.152   210.399
 H     18  17  16   1.157086   109.276    90.593
 H     18  17  16   1.156873   109.768   330.331
 H     17  16   9   1.152798   107.842   147.156
 H     17  16   9   1.151627   108.433    28.548
 H     16   9   8   1.158658   108.321   296.004
 H     16   9   8   1.158912   108.288    53.181
 C     20  18  17  48.327001   126.606    94.980
 C     26  20  18   1.395677   117.603    85.330
 C     27  26  20   1.429771   114.101   133.430
 C     28  27  26   1.398323   113.693     0.000
 S     26  20  18   1.658040   117.611   213.162
 H     27  26  20   1.139299   122.293   331.449
 C     28  27  26   1.623961   121.484   179.878
 C     32  28  27   1.717697   114.454   308.142
 C     33  32  28   1.714758   133.617   177.191
 H     34  33  32   1.156100   106.339    22.682
 H     34  33  32   1.156512   106.613   138.593
 H     33  32  28   1.129840   103.208    54.188
 H     33  32  28   1.161234   103.003   300.252
 H     32  28  27   1.161735   110.550   187.979
 H     32  28  27   1.160702   109.804    68.448
 C     34  33  32   1.635194   117.699   260.762
 C     41  34  33   1.702888   115.686   279.535
 C     42  41  34   1.684540   119.971   273.456
 H     43  42  41   1.158509   109.069   202.078
 H     43  42  41   1.157622   109.094    82.746
 H     43  42  41   1.155549   109.834   322.297
 H     42  41  34   1.154915   106.532   152.227
 H     42  41  34   1.146295   107.074    34.932
 H     41  34  33   1.156689   109.070   159.456
 H     41  34  33   1.155313   109.400    40.537
 H      1   2   3   1.059998   127.261   180.000
 H      4   3   2   1.059995   127.206   180.000
 H     26  20  18   1.060002    40.058   329.242
 H     29  28  27   1.060000   127.207   180.000

---------------------------
INTERNAL COORDINATES (A.U.)
---------------------------
 C      0   0   0   0.000000     0.000     0.000
 C      1   0   0   2.637432     0.000     0.000
 C      2   1   0   2.701895   114.102     0.000
 C      3   2   1   2.642454   113.693     0.000
 S      1   2   3   3.133250   105.479     0.000
 H      2   1   3   2.159968   124.399   183.012
 C      3   2   1   3.042082   123.368   179.032
 C      7   3   2   3.219902   125.361    47.242
 C      8   7   3   3.214327   121.854   268.885
 H      9   8   7   2.179904   108.235   307.998
 H      9   8   7   2.178672   108.221    66.567
 H      8   7   3   2.182939   106.078   147.644
 H      8   7   3   2.178981   106.588    31.235
 H      7   3   2   2.214584   108.067   283.835
 H      7   3   2   2.200255   108.750   167.950
 C      9   8   7   3.088761   110.607   187.249
 C     16   9   8   3.199828   118.755   174.619
 C     17  16   9   3.185332   114.723   267.285
 H     18  17  16   2.188042   109.152   210.399
 H     18  17  16   2.186576   109.276    90.593
 H     18  17  16   2.186172   109.768   330.331
 H     17  16   9   2.178472   107.842   147.156
 H     17  16   9   2.176260   108.433    28.548
 H     16   9   8   2.189546   108.321   296.004
 H     16   9   8   2.190026   108.288    53.181
 C     20  18  17  91.324797   126.606    94.980
 C     26  20  18   2.637448   117.603    85.330
 C     27  26  20   2.701876   114.101   133.430
 C     28  27  26   2.642448   113.693     0.000
 S     26  20  18   3.133242   117.611   213.162
 H     27  26  20   2.152964   122.293   331.449
 C     28  27  26   3.068842   121.484   179.878
 C     32  28  27   3.245976   114.454   308.142
 C     33  32  28   3.240424   133.617   177.191
 H     34  33  32   2.184712   106.339    22.682
 H     34  33  32   2.185491   106.613   138.593
 H     33  32  28   2.135089   103.208    54.188
 H     33  32  28   2.194414   103.003   300.252
 H     32  28  27   2.195361   110.550   187.979
 H     32  28  27   2.193409   109.804    68.448
 C     34  33  32   3.090069   117.699   260.762
 C     41  34  33   3.217991   115.686   279.535
 C     42  41  34   3.183319   119.971   273.456
 H     43  42  41   2.189264   109.069   202.078
 H     43  42  41   2.187589   109.094    82.746
 H     43  42  41   2.183672   109.834   322.297
 H     42  41  34   2.182473   106.532   152.227
 H     42  41  34   2.166184   107.074    34.932
 H     41  34  33   2.185825   109.070   159.456
 H     41  34  33   2.183225   109.400    40.537
 H      1   2   3   2.003106   127.261   180.000
 H      4   3   2   2.003099   127.206   180.000
 H     26  20  18   2.003114    40.058   329.242
 H     29  28  27   2.003109   127.207   180.000

----------------------------
SLATER BASIS SET DIM= 120
----------------------------
  0 C     2 shells
 l=0 nsto= 1
    2       1.625000000000        1.000000000000
 l=1 nsto= 1
    2       1.625000000000        1.000000000000
  1 C     2 shells
 l=0 nsto= 1
    2       1.625000000000        1.000000000000
 l=1 nsto= 1
    2       1.625000000000        1.000000000000
  2 C     2 shells
 l=0 nsto= 1
    2       1.625000000000        1.000000000000
 l=1 nsto= 1
    2       1.625000000000        1.000000000000
  3 C     2 shells
 l=0 nsto= 1
    2       1.625000000000        1.000000000000
 l=1 nsto= 1
    2       1.625000000000        1.000000000000
  4 S     2 shells
 l=0 nsto= 1
    3       1.925000000000        1.000000000000
 l=1 nsto= 1
    3       1.925000000000        1.000000000000
  5 H     1 shells
 l=0 nsto= 1
    1       1.200000000000        1.000000000000
  6 C     2 shells
 l=0 nsto= 1
    2       1.625000000000        1.000000000000
 l=1 nsto= 1
    2       1.625000000000        1.000000000000
  7 C     2 shells
 l=0 nsto= 1
    2       1.625000000000        1.000000000000
 l=1 nsto= 1
    2       1.625000000000        1.000000000000
  8 C     2 shells
 l=0 nsto= 1
    2       1.625000000000        1.000000000000
 l=1 nsto= 1
    2       1.625000000000        1.000000000000
  9 H     1 shells
 l=0 nsto= 1
    1       1.200000000000        1.000000000000
 10 H     1 shells
 l=0 nsto= 1
    1       1.200000000000        1.000000000000
 11 H     1 shells
 l=0 nsto= 1
    1       1.200000000000        1.000000000000
 12 H     1 shells
 l=0 nsto= 1
    1       1.200000000000        1.000000000000
 13 H     1 shells
 l=0 nsto= 1
    1       1.200000000000        1.000000000000
 14 H     1 shells
 l=0 nsto= 1
    1       1.200000000000        1.000000000000
 15 C     2 shells
 l=0 nsto= 1
    2       1.625000000000        1.000000000000
 l=1 nsto= 1
    2       1.625000000000        1.000000000000
 16 C     2 shells
 l=0 nsto= 1
    2       1.625000000000        1.000000000000
 l=1 nsto= 1
    2       1.625000000000        1.000000000000
 17 C     2 shells
 l=0 nsto= 1
    2       1.625000000000        1.000000000000
 l=1 nsto= 1
    2       1.625000000000        1.000000000000
 18 H     1 shells
 l=0 nsto= 1
    1       1.200000000000        1.000000000000
 19 H     1 shells
 l=0 nsto= 1
    1       1.200000000000        1.000000000000
 20 H     1 shells
 l=0 nsto= 1
    1       1.200000000000        1.000000000000
 21 H     1 shells
 l=0 nsto= 1
    1       1.200000000000        1.000000000000
 22 H     1 shells
 l=0 nsto= 1
    1       1.200000000000        1.000000000000
 23 H     1 shells
 l=0 nsto= 1
    1       1.200000000000        1.000000000000
 24 H     1 shells
 l=0 nsto= 1
    1       1.200000000000        1.000000000000
 25 C     2 shells
 l=0 nsto= 1
    2       1.625000000000        1.000000000000
 l=1 nsto= 1
    2       1.625000000000        1.000000000000
 26 C     2 shells
 l=0 nsto= 1
    2       1.625000000000        1.000000000000
 l=1 nsto= 1
    2       1.625000000000        1.000000000000
 27 C     2 shells
 l=0 nsto= 1
    2       1.625000000000        1.000000000000
 l=1 nsto= 1
    2       1.625000000000        1.000000000000
 28 C     2 shells
 l=0 nsto= 1
    2       1.625000000000        1.000000000000
 l=1 nsto= 1
    2       1.625000000000        1.000000000000
 29 S     2 shells
 l=0 nsto= 1
    3       1.925000000000        1.000000000000
 l=1 nsto= 1
    3       1.925000000000        1.000000000000
 30 H     1 shells
 l=0 nsto= 1
    1       1.200000000000        1.000000000000
 31 C     2 shells
 l=0 nsto= 1
    2       1.625000000000        1.000000000000
 l=1 nsto= 1
    2       1.625000000000        1.000000000000
 32 C     2 shells
 l=0 nsto= 1
    2       1.625000000000        1.000000000000
 l=1 nsto= 1
    2       1.625000000000        1.000000000000
 33 C     2 shells
 l=0 nsto= 1
    2       1.625000000000        1.000000000000
 l=1 nsto= 1
    2       1.625000000000        1.000000000000
 34 H     1 shells
 l=0 nsto= 1
    1       1.200000000000        1.000000000000
 35 H     1 shells
 l=0 nsto= 1
    1       1.200000000000        1.000000000000
 36 H     1 shells
 l=0 nsto= 1
    1       1.200000000000        1.000000000000
 37 H     1 shells
 l=0 nsto= 1
    1       1.200000000000        1.000000000000
 38 H     1 shells
 l=0 nsto= 1
    1       1.200000000000        1.000000000000
 39 H     1 shells
 l=0 nsto= 1
    1       1.200000000000        1.000000000000
 40 C     2 shells
 l=0 nsto= 1
    2       1.625000000000        1.000000000000
 l=1 nsto= 1
    2       1.625000000000        1.000000000000
 41 C     2 shells
 l=0 nsto= 1
    2       1.625000000000        1.000000000000
 l=1 nsto= 1
    2       1.625000000000        1.000000000000
 42 C     2 shells
 l=0 nsto= 1
    2       1.625000000000        1.000000000000
 l=1 nsto= 1
    2       1.625000000000        1.000000000000
 43 H     1 shells
 l=0 nsto= 1
    1       1.200000000000        1.000000000000
 44 H     1 shells
 l=0 nsto= 1
    1       1.200000000000        1.000000000000
 45 H     1 shells
 l=0 nsto= 1
    1       1.200000000000        1.000000000000
 46 H     1 shells
 l=0 nsto= 1
    1       1.200000000000        1.000000000000
 47 H     1 shells
 l=0 nsto= 1
    1       1.200000000000        1.000000000000
 48 H     1 shells
 l=0 nsto= 1
    1       1.200000000000        1.000000000000
 49 H     1 shells
 l=0 nsto= 1
    1       1.200000000000        1.000000000000
 50 H     1 shells
 l=0 nsto= 1
    1       1.200000000000        1.000000000000
 51 H     1 shells
 l=0 nsto= 1
    1       1.200000000000        1.000000000000
 52 H     1 shells
 l=0 nsto= 1
    1       1.200000000000        1.000000000000
 53 H     1 shells
 l=0 nsto= 1
    1       1.200000000000        1.000000000000
------------------------------------------------------------------------------
                           ORCA NDO INTEGRAL CALCULATION
------------------------------------------------------------------------------

--------------
NDO PARAMETERS
--------------

Gamma integral treatment              ... Mataga-Nishimoto
Nuclear repulsuion treatment          ... Direct (ZA*ZB/RAB)
Interaction factors:
s-s (sigma) =    1.0000
s-p (sigma) =    1.0000
s-d (sigma) =    1.0000
p-p (sigma) =    1.2670  p-p(pi) =    0.5850
p-d (sigma) =    1.0000  p-d(pi) =    1.0000
d-d (sigma) =    1.0000  d-d(pi) =    1.0000 d-d (delta) =    1.0000

fGamma parameter for Mataga-Nishimoto gamma integrals:    1.2000

--------------------------
Parameters for Element H :
--------------------------
 One-electron parameters (in eV)
  U(s)  =   -13.060000 Beta(s) =    12.000000 Neff(s) =     1.000000
 One-center electron repulsion parameters (in eV)
  G(s,s)=    12.850000
--------------------------
Parameters for Element C :
--------------------------
 One-electron parameters (in eV)
  U(s)  =   -50.870766 Beta(s) =    17.000000 Neff(s) =     2.000000
  U(p)  =   -41.599980 Beta(p) =    17.000000 Neff(p) =     2.000000 
 One-center electron repulsion parameters (in eV)
  G(s,s)=    11.110000
  G(s,p)=    11.110000 G(p,p)  =    11.110000
 Slater-Condon parameters (in eV)
 F2(p,p)=     4.5098 G1(s,p)=    6.8977
--------------------------
Parameters for Element S :
--------------------------
 One-electron parameters (in eV)
  U(s)  =   -69.509597 Beta(s) =    15.000000 Neff(s) =     2.000000
  U(p)  =   -60.725746 Beta(p) =    15.000000 Neff(p) =     4.000000 
 One-center electron repulsion parameters (in eV)
  G(s,s)=    10.090000
  G(s,p)=    10.090000 G(p,p)  =    10.090000
 Slater-Condon parameters (in eV)
 F2(p,p)=     4.5377 G1(s,p)=    3.0756

 Number of atoms                    ....   54
 Number of basis functions          ....  120

 Overlap integrals                  .... done
 One electron matrix                .... done
 Nuclear repulsion                  .... done
 Integral list                      .... done
 Electron-electron repulsion        .... done
-------------------------------------------------------------------------------
                                 ORCA SCF
-------------------------------------------------------------------------------

------------
SCF SETTINGS
------------
Hamiltonian:
 ZDO-Hamiltonian        Method          .... INDO


General Settings:
 Integral files         IntName         .... /Users/mattyjones/GoogleDrive/Boise/Code/MorphCT/tests/output_EZ/donor_polymer/chromophores/input_orca/pair/00008-00025
 Hartree-Fock type      HFTyp           .... RHF
 Total Charge           Charge          ....    0
 Multiplicity           Mult            ....    1
 Number of Electrons    NEL             ....  124
 Basis Dimension        Dim             ....  120
 Nuclear Repulsion      ENuc            ....    618.2843701181 Eh

Convergence Acceleration:
 DIIS                   CNVDIIS         .... on
   Start iteration      DIISMaxIt       ....    12
   Startup error        DIISStart       ....  0.200000
   # of expansion vecs  DIISMaxEq       ....     5
   Bias factor          DIISBfac        ....   1.050
   Max. coefficient     DIISMaxC        ....  10.000
 Newton-Raphson         CNVNR           .... off
 SOSCF                  CNVSOSCF        .... on
   Start iteration      SOSCFMaxIt      ....   150
   Startup grad/error   SOSCFStart      ....  0.003300
 Level Shifting         CNVShift        .... on
   Level shift para.    LevelShift      ....    0.2500
   Turn off err/grad.   ShiftErr        ....    0.0010
 Zerner damping         CNVZerner       .... off
 Static damping         CNVDamp         .... on
   Fraction old density DampFac         ....    0.7000
   Max. Damping (<1)    DampMax         ....    0.9800
   Min. Damping (>=0)   DampMin         ....    0.0000
   Turn off err/grad.   DampErr         ....    0.1000
 Fernandez-Rico         CNVRico         .... off

SCF Procedure:
 Maximum # iterations   MaxIter         ....   125
 SCF integral mode      SCFMode         .... Conventional
 Integral Buffer length BufferLength    .... 1048576
 Integral index format  IndFormat       ....     0
 Integral value format  ValFormat       ....     0
 Integral Storage       Thresh          ....  1.000e-08 Eh

Convergence Tolerance:
 Convergence Check Mode ConvCheckMode   .... Total+1el-Energy
 Energy Change          TolE            ....  1.000e-06 Eh
 1-El. energy change                    ....  1.000e-03 Eh
 Orbital Gradient       TolG            ....  5.000e-05
 Orbital Rotation angle TolX            ....  5.000e-05
 DIIS Error             TolErr          ....  1.000e-06


Diagonalization of the overlap matrix:
Smallest eigenvalue                        ... 1.696e-01
Time for diagonalization                   ...    0.003 sec
Threshold for overlap eigenvalues          ... 1.000e-08
Number of eigenvalues below threshold      ... 0
Time for construction of square roots      ...    0.001 sec
Total time needed                          ...    0.005 sec

-------------------------------
INITIAL GUESS: EXTENDED HUECKEL
-------------------------------
EHT matrix was read from disk
EHT matrix was diagonalized
Initial density was built
                      ------------------
                      INITIAL GUESS DONE
                      ------------------

 InCore treatment chosen:
   Memory dedicated               ...    1024 MB
   Memory needed                  ...      0 MB
   Number of tiny    integrals    ...       0
   Number of small   integrals    ...       0
   Number of regular integrals    ...    7392

--------------
SCF ITERATIONS
--------------
ITER       Energy         Delta-E        Max-DP      RMS-DP      [F,P]     Damp
  0    -21.8293103091   0.000000000000 0.04024740  0.00144844  0.1131326 0.7000
  1    -21.8711295438  -0.041819234696 0.03715966  0.00136379  0.0772117 0.7000
                               ***Turning on DIIS***
  2    -21.9020756262  -0.030946082397 0.09197982  0.00349801  0.0490032 0.0000
  3    -21.9826085221  -0.080532895863 0.01907318  0.00072060  0.0220426 0.0000
  4    -21.9676599033   0.014948618767 0.01105929  0.00049475  0.0061760 0.0000
  5    -21.9849887587  -0.017328855346 0.00727104  0.00033535  0.0034892 0.0000
  6    -21.9876684388  -0.002679680119 0.00474457  0.00023882  0.0017588 0.0000
                      *** Initiating the SOSCF procedure ***
                           *** Shutting down DIIS ***
                      *** Re-Reading the Fockian *** 
                      *** Removing any level shift *** 
ITER      Energy       Delta-E        Grad      Rot      Max-DP    RMS-DP
  7    -21.98350862   0.0041598221  0.003032  0.003032  0.004582  0.000225
  8    -21.98148668   0.0020219335  0.000274  0.000720  0.000503  0.000023
  9    -21.98148838  -0.0000016940  0.000137  0.000594  0.000489  0.000020
                 **** Energy Check signals convergence ****
              ***Rediagonalizing the Fockian in SOSCF/NRSCF***

               *****************************************************
               *                     SUCCESS                       *
               *           SCF CONVERGED AFTER  10 CYCLES          *
               *****************************************************


----------------
TOTAL SCF ENERGY
----------------

Total Energy       :          -21.98148902 Eh            -598.14673 eV

Components:
Nuclear Repulsion  :          618.28437012 Eh           16824.37305 eV
Electronic Energy  :         -640.26585914 Eh          -17422.51977 eV

One Electron Energy:        -1190.14385651 Eh          -32385.46078 eV
Two Electron Energy:          549.87799737 Eh           14962.94101 eV


---------------
SCF CONVERGENCE
---------------

  Last Energy change         ...   -6.4273e-07  Tolerance :   1.0000e-06
  Last MAX-Density change    ...    3.8657e-05  Tolerance :   1.0000e-05
  Last RMS-Density change    ...    2.0162e-06  Tolerance :   1.0000e-06
  Last Orbital Gradient      ...    1.0871e-05  Tolerance :   5.0000e-05
  Last Orbital Rotation      ...    4.6456e-05  Tolerance :   5.0000e-05

             **** THE GBW FILE WAS UPDATED (/Users/mattyjones/GoogleDrive/Boise/Code/MorphCT/tests/output_EZ/donor_polymer/chromophores/input_orca/pair/00008-00025.gbw) ****
             **** DENSITY FILE WAS UPDATED (/Users/mattyjones/GoogleDrive/Boise/Code/MorphCT/tests/output_EZ/donor_polymer/chromophores/input_orca/pair/00008-00025.scfp.tmp) ****
             **** ENERGY FILE WAS UPDATED (/Users/mattyjones/GoogleDrive/Boise/Code/MorphCT/tests/output_EZ/donor_polymer/chromophores/input_orca/pair/00008-00025.en.tmp) ****
----------------
ORBITAL ENERGIES
----------------

  NO   OCC          E(Eh)            E(eV) 
   0   2.0000      -1.558018       -42.3958 
   1   2.0000      -1.556334       -42.3500 
   2   2.0000      -1.396301       -37.9953 
   3   2.0000      -1.390181       -37.8287 
   4   2.0000      -1.291170       -35.1345 
   5   2.0000      -1.283206       -34.9178 
   6   2.0000      -1.188444       -32.3392 
   7   2.0000      -1.186372       -32.2828 
   8   2.0000      -1.116169       -30.3725 
   9   2.0000      -1.109122       -30.1808 
  10   2.0000      -1.036837       -28.2138 
  11   2.0000      -1.032134       -28.0858 
  12   2.0000      -0.968426       -26.3522 
  13   2.0000      -0.959956       -26.1217 
  14   2.0000      -0.919277       -25.0148 
  15   2.0000      -0.891389       -24.2559 
  16   2.0000      -0.868557       -23.6346 
  17   2.0000      -0.844585       -22.9823 
  18   2.0000      -0.831562       -22.6280 
  19   2.0000      -0.825450       -22.4616 
  20   2.0000      -0.771399       -20.9908 
  21   2.0000      -0.770725       -20.9725 
  22   2.0000      -0.735851       -20.0235 
  23   2.0000      -0.727553       -19.7977 
  24   2.0000      -0.696866       -18.9627 
  25   2.0000      -0.687844       -18.7172 
  26   2.0000      -0.684049       -18.6139 
  27   2.0000      -0.676644       -18.4124 
  28   2.0000      -0.648649       -17.6506 
  29   2.0000      -0.633866       -17.2484 
  30   2.0000      -0.623580       -16.9685 
  31   2.0000      -0.612901       -16.6779 
  32   2.0000      -0.588644       -16.0178 
  33   2.0000      -0.586850       -15.9690 
  34   2.0000      -0.578641       -15.7456 
  35   2.0000      -0.577036       -15.7019 
  36   2.0000      -0.567547       -15.4437 
  37   2.0000      -0.565457       -15.3869 
  38   2.0000      -0.563433       -15.3318 
  39   2.0000      -0.553930       -15.0732 
  40   2.0000      -0.534724       -14.5506 
  41   2.0000      -0.524566       -14.2742 
  42   2.0000      -0.519911       -14.1475 
  43   2.0000      -0.515829       -14.0364 
  44   2.0000      -0.509165       -13.8551 
  45   2.0000      -0.506769       -13.7899 
  46   2.0000      -0.494315       -13.4510 
  47   2.0000      -0.491978       -13.3874 
  48   2.0000      -0.488374       -13.2893 
  49   2.0000      -0.485673       -13.2158 
  50   2.0000      -0.483223       -13.1492 
  51   2.0000      -0.481546       -13.1035 
  52   2.0000      -0.469508       -12.7760 
  53   2.0000      -0.468778       -12.7561 
  54   2.0000      -0.464607       -12.6426 
  55   2.0000      -0.449865       -12.2414 
  56   2.0000      -0.441068       -12.0021 
  57   2.0000      -0.435229       -11.8432 
  58   2.0000      -0.357052        -9.7159 
  59   2.0000      -0.356037        -9.6882 
  60   2.0000      -0.305679        -8.3179 
  61   2.0000      -0.305000        -8.2995 
  62   0.0000       0.006439         0.1752 
  63   0.0000       0.007484         0.2037 
  64   0.0000       0.061899         1.6843 
  65   0.0000       0.065607         1.7853 
  66   0.0000       0.070160         1.9092 
  67   0.0000       0.075176         2.0457 
  68   0.0000       0.086489         2.3535 
  69   0.0000       0.088682         2.4132 
  70   0.0000       0.103431         2.8145 
  71   0.0000       0.104791         2.8515 
  72   0.0000       0.106923         2.9095 
  73   0.0000       0.108030         2.9396 
  74   0.0000       0.124083         3.3765 
  75   0.0000       0.125293         3.4094 
  76   0.0000       0.140966         3.8359 
  77   0.0000       0.143088         3.8936 
  78   0.0000       0.155443         4.2298 
  79   0.0000       0.160837         4.3766 
  80   0.0000       0.165195         4.4952 
  81   0.0000       0.166619         4.5339 
  82   0.0000       0.172295         4.6884 
  83   0.0000       0.173002         4.7076 
  84   0.0000       0.204331         5.5601 
  85   0.0000       0.204769         5.5721 
  86   0.0000       0.233316         6.3488 
  87   0.0000       0.233322         6.3490 
  88   0.0000       0.233834         6.3629 
  89   0.0000       0.235522         6.4089 
  90   0.0000       0.236305         6.4302 
  91   0.0000       0.238329         6.4852 
  92   0.0000       0.238416         6.4876 
  93   0.0000       0.240033         6.5316 
  94   0.0000       0.240155         6.5349 
  95   0.0000       0.241977         6.5845 
  96   0.0000       0.242217         6.5911 
  97   0.0000       0.243315         6.6209 
  98   0.0000       0.243587         6.6283 
  99   0.0000       0.244780         6.6608 
 100   0.0000       0.248604         6.7648 
 101   0.0000       0.250817         6.8251 
 102   0.0000       0.253218         6.8904 
 103   0.0000       0.257539         7.0080 
 104   0.0000       0.266182         7.2432 
 105   0.0000       0.266703         7.2573 
 106   0.0000       0.282686         7.6923 
 107   0.0000       0.283143         7.7047 
 108   0.0000       0.298418         8.1204 
 109   0.0000       0.309427         8.4199 
 110   0.0000       0.309886         8.4324 
 111   0.0000       0.312163         8.4944 
 112   0.0000       0.339867         9.2483 
 113   0.0000       0.340566         9.2673 
 114   0.0000       0.354838         9.6556 
 115   0.0000       0.356623         9.7042 
 116   0.0000       0.412300        11.2192 
 117   0.0000       0.412319        11.2198 
 118   0.0000       0.427586        11.6352 
 119   0.0000       0.431750        11.7485 
-------
TIMINGS
-------

Total SCF time: 0 days 0 hours 0 min 0 sec 

Total time                  ....       0.118 sec
Sum of individual times     ....       0.096 sec  ( 81.6%)

Fock matrix formation       ....       0.048 sec  ( 40.5%)
Diagonalization             ....       0.024 sec  ( 20.0%)
Density matrix formation    ....       0.005 sec  (  3.9%)
Population analysis         ....       0.000 sec  (  0.0%)
Initial guess               ....       0.003 sec  (  2.4%)
Orbital Transformation      ....       0.000 sec  (  0.0%)
Orbital Orthonormalization  ....       0.000 sec  (  0.0%)
DIIS solution               ....       0.013 sec  ( 11.0%)
SOSCF solution              ....       0.004 sec  (  3.7%)

-------------------------   --------------------
FINAL SINGLE POINT ENERGY       -21.981489019887
-------------------------   --------------------


                            ***************************************
                            *     ORCA property calculations      *
                            ***************************************

                                    ---------------------
                                    Active property flags
                                    ---------------------
   (+) Dipole Moment


------------------------------------------------------------------------------
                       ORCA ELECTRIC PROPERTIES CALCULATION
------------------------------------------------------------------------------

Dipole Moment Calculation                       ... on
Quadrupole Moment Calculation                   ... off
Polarizability Calculation                      ... off
GBWName                                         ... /Users/mattyjones/GoogleDrive/Boise/Code/MorphCT/tests/output_EZ/donor_polymer/chromophores/input_orca/pair/00008-00025.gbw
Electron density file                           ... /Users/mattyjones/GoogleDrive/Boise/Code/MorphCT/tests/output_EZ/donor_polymer/chromophores/input_orca/pair/00008-00025.scfp.tmp

-------------
DIPOLE MOMENT
-------------
                                X             Y             Z
Electronic contribution:    195.47649     208.87618     -48.50032
Nuclear contribution   :   -106.73815    -112.10696      26.01578
                        -----------------------------------------
Total Dipole Moment    :     88.73835      96.76921     -22.48454
                        -----------------------------------------
Magnitude (a.u.)       :    133.20784
Magnitude (Debye)      :    338.58743


Timings for individual modules:

Sum of individual times         ...        0.207 sec (=   0.003 min)
STO integral calculation        ...        0.041 sec (=   0.001 min)  20.0 %
SCF iterations                  ...        0.166 sec (=   0.003 min)  80.0 %
                             ****ORCA TERMINATED NORMALLY****
TOTAL RUN TIME: 0 days 0 hours 0 minutes 0 seconds 510 msec

