
                                 *****************
                                 * O   R   C   A *
                                 *****************

           --- An Ab Initio, DFT and Semiempirical electronic structure package ---

                  #######################################################
                  #                        -***-                        #
                  #  Department of molecular theory and spectroscopy    #
                  #              Directorship: Frank Neese              #
                  # Max Planck Institute for Chemical Energy Conversion #
                  #                  D-45470 Muelheim/Ruhr              #
                  #                       Germany                       #
                  #                                                     #
                  #                  All rights reserved                #
                  #                        -***-                        #
                  #######################################################


                         Program Version 3.0.3 - RELEASE   -


 With contributions from (in alphabetic order):
   Ute Becker             : Parallelization
   Dmytro Bykov           : SCF Hessian
   Dmitry Ganyushin       : Spin-Orbit,Spin-Spin,Magnetic field MRCI
   Andreas Hansen         : Spin unrestricted coupled pair/coupled cluster methods
   Dimitrios Liakos       : Extrapolation schemes; parallel MDCI
   Robert Izsak           : Overlap fitted RIJCOSX, COSX-SCS-MP3
   Christian Kollmar      : KDIIS, OOCD, Brueckner-CCSD(T), CCSD density
   Simone Kossmann        : Meta GGA functionals, TD-DFT gradient, OOMP2, MP2 Hessian
   Taras Petrenko         : DFT Hessian,TD-DFT gradient, ASA and ECA modules, normal mode analysis, Resonance Raman, ABS, FL, XAS/XES, NRVS
   Christoph Reimann      : Effective Core Potentials
   Michael Roemelt        : Restricted open shell CIS
   Christoph Riplinger    : Improved optimizer, TS searches, QM/MM, DLPNO-CCSD
   Barbara Sandhoefer     : DKH picture change effects
   Igor Schapiro          : Molecular dynamics
   Kantharuban Sivalingam : CASSCF convergence, NEVPT2
   Boris Wezisla          : Elementary symmetry handling
   Frank Wennmohs         : Technical directorship


 We gratefully acknowledge several colleagues who have allowed us to
 interface, adapt or use parts of their codes:
   Stefan Grimme, W. Hujo, H. Kruse, T. Risthaus : VdW corrections, initial TS optimization,
                                                   DFT functionals, gCP
   Ed Valeev                                     : LibInt (2-el integral package), F12 methods
   Garnet Chan, S. Sharma, R. Olivares           : DMRG
   Ulf Ekstrom                                   : XCFun DFT Library
   Mihaly Kallay                                 : mrcc  (arbitrary order and MRCC methods)
   Andreas Klamt, Michael Diedenhofen            : otool_cosmo (COSMO solvation model)
   Frank Weinhold                                : gennbo (NPA and NBO analysis)
   Christopher J. Cramer and Donald G. Truhlar   : smd solvation model


 Your calculation uses the libint2 library for the computation of 2-el integrals
 For citations please refer to: http://libint.valeyev.net

 This ORCA versions uses:
   CBLAS   interface :  Fast vector & matrix operations
   LAPACKE interface :  Fast linear algebra routines
   SCALAPACK package :  Parallel linear algebra routines


leaving
================================================================================
                                        WARNINGS
                       Please study these warnings very carefully!
================================================================================
Now building the actual basis set

WARNING: Direct SCF is incompatible with Method<>HF and Method<>DFT
  ===> : conventional SCF is chosen

WARNING: The NDO methods need Guess=HUECKEL or Guess=HCORE or Guess=MOREAD
  ===> : Guess is set to Hueckel

WARNING: The NDO methods need %rel::SOCType==1
  ===> : %rel::SOCType is set to 1

WARNING: The NDO methods cannot have frozencore=1
  ===> : %method FrozenCore=0 end


INFO   : the flag for use of LIBINT has been found!

================================================================================
                                       INPUT FILE
================================================================================
NAME = /Users/mattyjones/GoogleDrive/Boise/Code/MorphCT/tests/output_EZ/donor_polymer/chromophores/input_orca/pair/00006-00016.inp
|  1> # ================================================================
|  2> # Orca input file made by Matty Jones
|  3> # ================================================================
|  4> ! ZINDO/S 
|  5> ! NOPOP
|  6> ! NOMOPRINT
|  7> * xyz 0   1
|  8>  C  13.71470  9.32571  1.71051
|  9>  C  13.11247  8.06954  1.62535
| 10>  C  13.64928  7.10208  2.53096
| 11>  C  14.68061  7.59682  3.33527
| 12>  S  14.87133  9.18291  2.88988
| 13>  H  12.27092  7.81035  0.89794
| 14>  C  13.03497  5.59970  2.52337
| 15>  C  12.68244  4.73332  3.95024
| 16>  C  12.02825  3.16793  3.77412
| 17>  H  12.48293  2.74551  2.79555
| 18>  H  12.45384  2.55054  4.65985
| 19>  H  13.66470  4.57773  4.52451
| 20>  H  11.94898  5.36027  4.57380
| 21>  H  13.77759  4.90866  1.93731
| 22>  H  12.02843  5.60888  1.93215
| 23>  C  10.41469  2.91748  3.73106
| 24>  C  9.66284  2.78039  2.21996
| 25>  C  8.99775  4.19039  1.59396
| 26>  H  8.04474  3.92327  0.99208
| 27>  H  9.76500  4.70259  0.89609
| 28>  H  8.71774  4.90666  2.45835
| 29>  H  10.44845  2.39416  1.46945
| 30>  H  8.81768  2.00084  2.31871
| 31>  H  10.17886  1.93574  4.30074
| 32>  H  9.89258  3.78956  4.28654
| 33>  C  -13.84102  -8.51013  -5.75183
| 34>  C  -12.72178  -8.05234  -5.05495
| 35>  C  -12.94585  -6.84876  -4.31641
| 36>  C  -14.24859  -6.35366  -4.43069
| 37>  S  -15.04347  -7.41618  -5.42551
| 38>  H  -11.70861  -8.57739  -5.09553
| 39>  C  -11.68707  -6.26771  -3.48910
| 40>  C  -11.14467  -4.67152  -3.71499
| 41>  C  -11.81918  -3.39739  -2.85455
| 42>  H  -12.77522  -3.07175  -3.40942
| 43>  H  -11.05939  -2.51931  -2.94878
| 44>  H  -10.01382  -4.67684  -3.47420
| 45>  H  -11.28244  -4.43448  -4.83822
| 46>  H  -11.90030  -6.39572  -2.35064
| 47>  H  -10.74529  -6.92167  -3.72579
| 48>  C  -12.11700  -3.62785  -1.27198
| 49>  C  -10.97300  -3.01303  -0.18822
| 50>  C  -9.73525  -4.04424  0.28924
| 51>  H  -9.91064  -5.09987  -0.14842
| 52>  H  -9.71639  -4.10199  1.44605
| 53>  H  -8.72366  -3.62816  -0.09031
| 54>  H  -10.49444  -2.08114  -0.67011
| 55>  H  -11.54686  -2.69287  0.76183
| 56>  H  -12.21540  -4.75576  -1.04362
| 57>  H  -13.12719  -3.12233  -1.00994
| 58>  H  13.48177  10.18901  1.14125
| 59>  H  15.22626  7.06868  4.07482
| 60>  H  -13.90817  -9.37485  -6.36122
| 61>  H  -14.64508  -5.48179  -3.97656
| 62> *
| 63> 
| 64>                          ****END OF INPUT****
================================================================================

                       ****************************
                       * Single Point Calculation *
                       ****************************

---------------------------------
CARTESIAN COORDINATES (ANGSTROEM)
---------------------------------
  C     13.714700    9.325710    1.710510
  C     13.112470    8.069540    1.625350
  C     13.649280    7.102080    2.530960
  C     14.680610    7.596820    3.335270
  S     14.871330    9.182910    2.889880
  H     12.270920    7.810350    0.897940
  C     13.034970    5.599700    2.523370
  C     12.682440    4.733320    3.950240
  C     12.028250    3.167930    3.774120
  H     12.482930    2.745510    2.795550
  H     12.453840    2.550540    4.659850
  H     13.664700    4.577730    4.524510
  H     11.948980    5.360270    4.573800
  H     13.777590    4.908660    1.937310
  H     12.028430    5.608880    1.932150
  C     10.414690    2.917480    3.731060
  C      9.662840    2.780390    2.219960
  C      8.997750    4.190390    1.593960
  H      8.044740    3.923270    0.992080
  H      9.765000    4.702590    0.896090
  H      8.717740    4.906660    2.458350
  H     10.448450    2.394160    1.469450
  H      8.817680    2.000840    2.318710
  H     10.178860    1.935740    4.300740
  H      9.892580    3.789560    4.286540
  C    -13.841020   -8.510130   -5.751830
  C    -12.721780   -8.052340   -5.054950
  C    -12.945850   -6.848760   -4.316410
  C    -14.248590   -6.353660   -4.430690
  S    -15.043470   -7.416180   -5.425510
  H    -11.708610   -8.577390   -5.095530
  C    -11.687070   -6.267710   -3.489100
  C    -11.144670   -4.671520   -3.714990
  C    -11.819180   -3.397390   -2.854550
  H    -12.775220   -3.071750   -3.409420
  H    -11.059390   -2.519310   -2.948780
  H    -10.013820   -4.676840   -3.474200
  H    -11.282440   -4.434480   -4.838220
  H    -11.900300   -6.395720   -2.350640
  H    -10.745290   -6.921670   -3.725790
  C    -12.117000   -3.627850   -1.271980
  C    -10.973000   -3.013030   -0.188220
  C     -9.735250   -4.044240    0.289240
  H     -9.910640   -5.099870   -0.148420
  H     -9.716390   -4.101990    1.446050
  H     -8.723660   -3.628160   -0.090310
  H    -10.494440   -2.081140   -0.670110
  H    -11.546860   -2.692870    0.761830
  H    -12.215400   -4.755760   -1.043620
  H    -13.127190   -3.122330   -1.009940
  H     13.481770   10.189010    1.141250
  H     15.226260    7.068680    4.074820
  H    -13.908170   -9.374850   -6.361220
  H    -14.645080   -5.481790   -3.976560

----------------------------
CARTESIAN COORDINATES (A.U.)
----------------------------
  NO LB      ZA    FRAG    MASS        X           Y           Z
   0 C     4.0000    0    12.011         25.917027008889793         17.623037904370758          3.232395449333640
   1 C     4.0000    0    12.011         24.778977239258396         15.249220626722897          3.071466371768906
   2 C     4.0000    0    12.011         25.793401125208661         13.420986181199442          4.782821255909331
   3 C     4.0000    0    12.011         27.742332378905665         14.355909288695644          6.302746882683533
   4 S     6.0000    0    32.060         28.102740947167128         17.353185012446801          5.461081759896346
   5 H     1.0000    0     1.008         23.188678211256967         14.759422510071847          1.696860684693249
   6 C     4.0000    0    12.011         24.632523463879497         10.581899432118833          4.768478234552869
   7 C     4.0000    0    12.011         23.966338309888240          8.944678504212138          7.464871763261085
   8 C     4.0000    0    12.011         22.730098370338297          5.986520111433151          7.132053196554875
   9 H     1.0000    0     1.008         23.589319048909609          5.188261997942136          5.282823893683555
  10 H     1.0000    0     1.008         23.534346915673840          4.819822093611509          8.805840325152944
  11 H     1.0000    0     1.008         25.822540702193727          8.650656015035331          8.550084790188043
  12 H     1.0000    0     1.008         22.580299779702358         10.129442303874068          8.643229391329021
  13 H     1.0000    0     1.008         26.035871885452099          9.276023084533891          3.660985336506980
  14 H     1.0000    0     1.008         22.730438521042402         10.599247118028231          3.651234349655947
  15 C     4.0000    0    12.011         19.680911869688320          5.513238201192573          7.050681589228225
  16 C     4.0000    0    12.011         18.260121275899625          5.254175645493310          4.195116428259822
  17 C     4.0000    0    12.011         17.003283321489942          7.918689494322273          3.012147868425118
  18 H     1.0000    0     1.008         15.202355418601648          7.413905849429229          1.874759502940595
  19 H     1.0000    0     1.008         18.453175697741024          8.886607220116739          1.693364691345494
  20 H     1.0000    0     1.008         16.474141106730652          9.272243632266047          4.645608241325308
  21 H     1.0000    0     1.008         19.744709023969502          4.524306720788903          2.776858067490583
  22 H     1.0000    0     1.008         16.663000336554742          3.781039637794998          4.381726883984545
  23 H     1.0000    0     1.008         19.235257755525673          3.658018466476724          8.127220773200484
  24 H     1.0000    0     1.008         18.694266957906695          7.161230568062618          8.100386662098801
  25 C     4.0000    0    12.011        -26.155737214126724        -16.081815064067261        -10.869383468872273
  26 C     4.0000    0    12.011        -24.040680135996702        -15.216717337219450         -9.552471120665231
  27 C     4.0000    0    12.011        -24.464111070824437        -12.942280756954512         -8.156832781719030
  28 C     4.0000    0    12.011        -26.925932894529009        -12.006677348050099         -8.372790684303551
  29 S     6.0000    0    32.060        -28.428038403860331        -14.014549159864108        -10.252728036851090
  30 H     1.0000    0     1.008        -22.126066308891708        -16.208918043834803         -9.629156207179756
  31 C     4.0000    0    12.011        -22.085361607967045        -11.844255386839569         -6.593443453864639
  32 C     4.0000    0    12.011        -21.060374152928155         -8.827893429135806         -7.020313690256111
  33 C     4.0000    0    12.011        -22.335013327519377         -6.420136670122721         -5.394317735584909
  34 H     1.0000    0     1.008        -24.141667100593452         -5.804766251872605         -6.442870075513794
  35 H     1.0000    0     1.008        -20.899218308227351         -4.760805946449149         -5.572386629184309
  36 H     1.0000    0     1.008        -18.923377354383309         -8.837946772168268         -6.565286534469213
  37 H     1.0000    0     1.008        -21.320721722398485         -8.379952746351112         -9.142910775660479
  38 H     1.0000    0     1.008        -22.488307911503071        -12.086159229242828         -4.442065839440651
  39 H     1.0000    0     1.008        -20.305655329562686        -13.080060689378710         -7.040722732502460
  40 C     4.0000    0    12.011        -22.897811564723806         -6.855642954946213         -2.403693847825154
  41 C     4.0000    0    12.011        -20.735964867517897         -5.693801533288749         -0.355684252926658
  42 C     4.0000    0    12.011        -18.396956345256868         -7.642506019849684          0.546584386975383
  43 H     1.0000    0     1.008        -18.728395411885316         -9.637357618600975         -0.280473152796592
  44 H     1.0000    0     1.008        -18.361316110371110         -7.751637704083635          2.732638475956826
  45 H     1.0000    0     1.008        -16.485328285443469         -6.856228770047728         -0.170661167154428
  46 H     1.0000    0     1.008        -19.831617528868541         -3.932784646348874         -1.266324379601970
  47 H     1.0000    0     1.008        -21.820403106729945         -5.088786814252521          1.439650060605227
  48 H     1.0000    0     1.008        -23.083760616301660         -8.987083958657333         -1.972155987882897
  49 H     1.0000    0     1.008        -24.806794007949716         -5.900348599726342         -1.908510011692429
  50 H     1.0000    0     1.008         25.476853100515513         19.254438475784973          2.156649950337629
  51 H     1.0000    0     1.008         28.773461443879796         13.357869328326473          7.700293845024994
  52 H     1.0000    0     1.008        -26.282632324019534        -17.715899046591648        -12.020963677622545
  53 H     1.0000    0     1.008        -27.675190409367445        -10.359081823668179         -7.514609355105892

--------------------------------
INTERNAL COORDINATES (ANGSTROEM)
--------------------------------
 C      0   0   0   0.000000     0.000     0.000
 C      1   0   0   1.395671     0.000     0.000
 C      2   1   0   1.429781   114.102     0.000
 C      3   2   1   1.398329   113.693     0.000
 S      1   2   3   1.658041   105.479     0.000
 H      2   1   3   1.142152   124.128   180.571
 C      3   2   1   1.623139   118.767   180.238
 C      7   3   2   1.706121   122.978   223.455
 C      8   7   3   1.705705   117.318   179.513
 H      9   8   7   1.158780   105.739    31.811
 H      9   8   7   1.160524   105.591   145.982
 H      8   7   3   1.148403   108.076   297.606
 H      8   7   3   1.148850   107.983    57.042
 H      7   3   2   1.171532   107.963   101.893
 H      7   3   2   1.167368   108.749   345.745
 C      9   8   7   1.633449   121.486   268.470
 C     16   9   8   1.693368   118.329    96.800
 C     17  16   9   1.679976   116.126   265.409
 H     18  17  16   1.158378   109.013   213.948
 H     18  17  16   1.156738   109.503    94.134
 H     18  17  16   1.156987   109.695   333.693
 H     17  16   9   1.153092   107.784    26.604
 H     17  16   9   1.154013   107.668   144.258
 H     16   9   8   1.159295   108.532   217.849
 H     16   9   8   1.158309   108.493   335.050
 C     19  18  17  26.058708   159.302    34.231
 C     26  19  18   1.395676    16.416    12.516
 C     27  26  19   1.429774   114.102    87.335
 C     28  27  26   1.398326   113.693     0.000
 S     26  19  18   1.658040   104.084   109.529
 H     27  26  19   1.141857   122.887   268.978
 C     28  27  26   1.614493   116.453   180.042
 C     32  28  27   1.700896   121.220   125.124
 C     33  32  28   1.678907   121.065    86.482
 H     34  33  32   1.152360   107.517   276.378
 H     34  33  32   1.164983   105.577   162.628
 H     33  32  28   1.156214   106.255   208.348
 H     33  32  28   1.156207   106.464   324.040
 H     32  28  27   1.165309   108.567   249.372
 H     32  28  27   1.170741   108.818     4.855
 C     34  33  32   1.626756   117.686    42.384
 C     41  34  33   1.691530   116.615    99.036
 C     42  41  34   1.680294   117.205   268.291
 H     43  42  41   1.156141   109.940   355.039
 H     43  42  41   1.158404   109.047   234.891
 H     43  42  41   1.157798   109.263   115.441
 H     42  41  34   1.153107   107.859    30.341
 H     42  41  34   1.155168   106.959   147.484
 H     41  34  33   1.154994   110.260   337.313
 H     41  34  33   1.159612   108.516   219.374
 H      1   2   3   1.060000   127.261   180.000
 H      4   3   2   1.060000   127.206   180.000
 H     26  19  18   1.060003   126.243   272.838
 H     29  28  27   1.059998   127.207   180.000

---------------------------
INTERNAL COORDINATES (A.U.)
---------------------------
 C      0   0   0   0.000000     0.000     0.000
 C      1   0   0   2.637435     0.000     0.000
 C      2   1   0   2.701894   114.102     0.000
 C      3   2   1   2.642459   113.693     0.000
 S      1   2   3   3.133243   105.479     0.000
 H      2   1   3   2.158354   124.128   180.571
 C      3   2   1   3.067288   118.767   180.238
 C      7   3   2   3.224102   122.978   223.455
 C      8   7   3   3.223315   117.318   179.513
 H      9   8   7   2.189777   105.739    31.811
 H      9   8   7   2.193072   105.591   145.982
 H      8   7   3   2.170167   108.076   297.606
 H      8   7   3   2.171012   107.983    57.042
 H      7   3   2   2.213875   107.963   101.893
 H      7   3   2   2.206006   108.749   345.745
 C      9   8   7   3.086771   121.486   268.470
 C     16   9   8   3.200002   118.329    96.800
 C     17  16   9   3.174695   116.126   265.409
 H     18  17  16   2.189018   109.013   213.948
 H     18  17  16   2.185919   109.503    94.134
 H     18  17  16   2.186388   109.695   333.693
 H     17  16   9   2.179029   107.784    26.604
 H     17  16   9   2.180768   107.668   144.258
 H     16   9   8   2.190750   108.532   217.849
 H     16   9   8   2.188887   108.493   335.050
 C     19  18  17  49.243821   159.302    34.231
 C     26  19  18   2.637445    16.416    12.516
 C     27  26  19   2.701881   114.102    87.335
 C     28  27  26   2.642453   113.693     0.000
 S     26  19  18   3.133242   104.084   109.529
 H     27  26  19   2.157797   122.887   268.978
 C     28  27  26   3.050950   116.453   180.042
 C     32  28  27   3.214227   121.220   125.124
 C     33  32  28   3.172674   121.065    86.482
 H     34  33  32   2.177646   107.517   276.378
 H     34  33  32   2.201498   105.577   162.628
 H     33  32  28   2.184927   106.255   208.348
 H     33  32  28   2.184914   106.464   324.040
 H     32  28  27   2.202115   108.567   249.372
 H     32  28  27   2.212381   108.818     4.855
 C     34  33  32   3.074124   117.686    42.384
 C     41  34  33   3.196529   116.615    99.036
 C     42  41  34   3.175295   117.205   268.291
 H     43  42  41   2.184790   109.940   355.039
 H     43  42  41   2.189067   109.047   234.891
 H     43  42  41   2.187920   109.263   115.441
 H     42  41  34   2.179057   107.859    30.341
 H     42  41  34   2.182951   106.959   147.484
 H     41  34  33   2.182623   110.260   337.313
 H     41  34  33   2.191349   108.516   219.374
 H      1   2   3   2.003110   127.261   180.000
 H      4   3   2   2.003110   127.206   180.000
 H     26  19  18   2.003115   126.243   272.838
 H     29  28  27   2.003106   127.207   180.000

----------------------------
SLATER BASIS SET DIM= 120
----------------------------
  0 C     2 shells
 l=0 nsto= 1
    2       1.625000000000        1.000000000000
 l=1 nsto= 1
    2       1.625000000000        1.000000000000
  1 C     2 shells
 l=0 nsto= 1
    2       1.625000000000        1.000000000000
 l=1 nsto= 1
    2       1.625000000000        1.000000000000
  2 C     2 shells
 l=0 nsto= 1
    2       1.625000000000        1.000000000000
 l=1 nsto= 1
    2       1.625000000000        1.000000000000
  3 C     2 shells
 l=0 nsto= 1
    2       1.625000000000        1.000000000000
 l=1 nsto= 1
    2       1.625000000000        1.000000000000
  4 S     2 shells
 l=0 nsto= 1
    3       1.925000000000        1.000000000000
 l=1 nsto= 1
    3       1.925000000000        1.000000000000
  5 H     1 shells
 l=0 nsto= 1
    1       1.200000000000        1.000000000000
  6 C     2 shells
 l=0 nsto= 1
    2       1.625000000000        1.000000000000
 l=1 nsto= 1
    2       1.625000000000        1.000000000000
  7 C     2 shells
 l=0 nsto= 1
    2       1.625000000000        1.000000000000
 l=1 nsto= 1
    2       1.625000000000        1.000000000000
  8 C     2 shells
 l=0 nsto= 1
    2       1.625000000000        1.000000000000
 l=1 nsto= 1
    2       1.625000000000        1.000000000000
  9 H     1 shells
 l=0 nsto= 1
    1       1.200000000000        1.000000000000
 10 H     1 shells
 l=0 nsto= 1
    1       1.200000000000        1.000000000000
 11 H     1 shells
 l=0 nsto= 1
    1       1.200000000000        1.000000000000
 12 H     1 shells
 l=0 nsto= 1
    1       1.200000000000        1.000000000000
 13 H     1 shells
 l=0 nsto= 1
    1       1.200000000000        1.000000000000
 14 H     1 shells
 l=0 nsto= 1
    1       1.200000000000        1.000000000000
 15 C     2 shells
 l=0 nsto= 1
    2       1.625000000000        1.000000000000
 l=1 nsto= 1
    2       1.625000000000        1.000000000000
 16 C     2 shells
 l=0 nsto= 1
    2       1.625000000000        1.000000000000
 l=1 nsto= 1
    2       1.625000000000        1.000000000000
 17 C     2 shells
 l=0 nsto= 1
    2       1.625000000000        1.000000000000
 l=1 nsto= 1
    2       1.625000000000        1.000000000000
 18 H     1 shells
 l=0 nsto= 1
    1       1.200000000000        1.000000000000
 19 H     1 shells
 l=0 nsto= 1
    1       1.200000000000        1.000000000000
 20 H     1 shells
 l=0 nsto= 1
    1       1.200000000000        1.000000000000
 21 H     1 shells
 l=0 nsto= 1
    1       1.200000000000        1.000000000000
 22 H     1 shells
 l=0 nsto= 1
    1       1.200000000000        1.000000000000
 23 H     1 shells
 l=0 nsto= 1
    1       1.200000000000        1.000000000000
 24 H     1 shells
 l=0 nsto= 1
    1       1.200000000000        1.000000000000
 25 C     2 shells
 l=0 nsto= 1
    2       1.625000000000        1.000000000000
 l=1 nsto= 1
    2       1.625000000000        1.000000000000
 26 C     2 shells
 l=0 nsto= 1
    2       1.625000000000        1.000000000000
 l=1 nsto= 1
    2       1.625000000000        1.000000000000
 27 C     2 shells
 l=0 nsto= 1
    2       1.625000000000        1.000000000000
 l=1 nsto= 1
    2       1.625000000000        1.000000000000
 28 C     2 shells
 l=0 nsto= 1
    2       1.625000000000        1.000000000000
 l=1 nsto= 1
    2       1.625000000000        1.000000000000
 29 S     2 shells
 l=0 nsto= 1
    3       1.925000000000        1.000000000000
 l=1 nsto= 1
    3       1.925000000000        1.000000000000
 30 H     1 shells
 l=0 nsto= 1
    1       1.200000000000        1.000000000000
 31 C     2 shells
 l=0 nsto= 1
    2       1.625000000000        1.000000000000
 l=1 nsto= 1
    2       1.625000000000        1.000000000000
 32 C     2 shells
 l=0 nsto= 1
    2       1.625000000000        1.000000000000
 l=1 nsto= 1
    2       1.625000000000        1.000000000000
 33 C     2 shells
 l=0 nsto= 1
    2       1.625000000000        1.000000000000
 l=1 nsto= 1
    2       1.625000000000        1.000000000000
 34 H     1 shells
 l=0 nsto= 1
    1       1.200000000000        1.000000000000
 35 H     1 shells
 l=0 nsto= 1
    1       1.200000000000        1.000000000000
 36 H     1 shells
 l=0 nsto= 1
    1       1.200000000000        1.000000000000
 37 H     1 shells
 l=0 nsto= 1
    1       1.200000000000        1.000000000000
 38 H     1 shells
 l=0 nsto= 1
    1       1.200000000000        1.000000000000
 39 H     1 shells
 l=0 nsto= 1
    1       1.200000000000        1.000000000000
 40 C     2 shells
 l=0 nsto= 1
    2       1.625000000000        1.000000000000
 l=1 nsto= 1
    2       1.625000000000        1.000000000000
 41 C     2 shells
 l=0 nsto= 1
    2       1.625000000000        1.000000000000
 l=1 nsto= 1
    2       1.625000000000        1.000000000000
 42 C     2 shells
 l=0 nsto= 1
    2       1.625000000000        1.000000000000
 l=1 nsto= 1
    2       1.625000000000        1.000000000000
 43 H     1 shells
 l=0 nsto= 1
    1       1.200000000000        1.000000000000
 44 H     1 shells
 l=0 nsto= 1
    1       1.200000000000        1.000000000000
 45 H     1 shells
 l=0 nsto= 1
    1       1.200000000000        1.000000000000
 46 H     1 shells
 l=0 nsto= 1
    1       1.200000000000        1.000000000000
 47 H     1 shells
 l=0 nsto= 1
    1       1.200000000000        1.000000000000
 48 H     1 shells
 l=0 nsto= 1
    1       1.200000000000        1.000000000000
 49 H     1 shells
 l=0 nsto= 1
    1       1.200000000000        1.000000000000
 50 H     1 shells
 l=0 nsto= 1
    1       1.200000000000        1.000000000000
 51 H     1 shells
 l=0 nsto= 1
    1       1.200000000000        1.000000000000
 52 H     1 shells
 l=0 nsto= 1
    1       1.200000000000        1.000000000000
 53 H     1 shells
 l=0 nsto= 1
    1       1.200000000000        1.000000000000
------------------------------------------------------------------------------
                           ORCA NDO INTEGRAL CALCULATION
------------------------------------------------------------------------------

--------------
NDO PARAMETERS
--------------

Gamma integral treatment              ... Mataga-Nishimoto
Nuclear repulsuion treatment          ... Direct (ZA*ZB/RAB)
Interaction factors:
s-s (sigma) =    1.0000
s-p (sigma) =    1.0000
s-d (sigma) =    1.0000
p-p (sigma) =    1.2670  p-p(pi) =    0.5850
p-d (sigma) =    1.0000  p-d(pi) =    1.0000
d-d (sigma) =    1.0000  d-d(pi) =    1.0000 d-d (delta) =    1.0000

fGamma parameter for Mataga-Nishimoto gamma integrals:    1.2000

--------------------------
Parameters for Element H :
--------------------------
 One-electron parameters (in eV)
  U(s)  =   -13.060000 Beta(s) =    12.000000 Neff(s) =     1.000000
 One-center electron repulsion parameters (in eV)
  G(s,s)=    12.850000
--------------------------
Parameters for Element C :
--------------------------
 One-electron parameters (in eV)
  U(s)  =   -50.870766 Beta(s) =    17.000000 Neff(s) =     2.000000
  U(p)  =   -41.599980 Beta(p) =    17.000000 Neff(p) =     2.000000 
 One-center electron repulsion parameters (in eV)
  G(s,s)=    11.110000
  G(s,p)=    11.110000 G(p,p)  =    11.110000
 Slater-Condon parameters (in eV)
 F2(p,p)=     4.5098 G1(s,p)=    6.8977
--------------------------
Parameters for Element S :
--------------------------
 One-electron parameters (in eV)
  U(s)  =   -69.509597 Beta(s) =    15.000000 Neff(s) =     2.000000
  U(p)  =   -60.725746 Beta(p) =    15.000000 Neff(p) =     4.000000 
 One-center electron repulsion parameters (in eV)
  G(s,s)=    10.090000
  G(s,p)=    10.090000 G(p,p)  =    10.090000
 Slater-Condon parameters (in eV)
 F2(p,p)=     4.5377 G1(s,p)=    3.0756

 Number of atoms                    ....   54
 Number of basis functions          ....  120

 Overlap integrals                  .... done
 One electron matrix                .... done
 Nuclear repulsion                  .... done
 Integral list                      .... done
 Electron-electron repulsion        .... done
-------------------------------------------------------------------------------
                                 ORCA SCF
-------------------------------------------------------------------------------

------------
SCF SETTINGS
------------
Hamiltonian:
 ZDO-Hamiltonian        Method          .... INDO


General Settings:
 Integral files         IntName         .... /Users/mattyjones/GoogleDrive/Boise/Code/MorphCT/tests/output_EZ/donor_polymer/chromophores/input_orca/pair/00006-00016
 Hartree-Fock type      HFTyp           .... RHF
 Total Charge           Charge          ....    0
 Multiplicity           Mult            ....    1
 Number of Electrons    NEL             ....  124
 Basis Dimension        Dim             ....  120
 Nuclear Repulsion      ENuc            ....    669.2878426824 Eh

Convergence Acceleration:
 DIIS                   CNVDIIS         .... on
   Start iteration      DIISMaxIt       ....    12
   Startup error        DIISStart       ....  0.200000
   # of expansion vecs  DIISMaxEq       ....     5
   Bias factor          DIISBfac        ....   1.050
   Max. coefficient     DIISMaxC        ....  10.000
 Newton-Raphson         CNVNR           .... off
 SOSCF                  CNVSOSCF        .... on
   Start iteration      SOSCFMaxIt      ....   150
   Startup grad/error   SOSCFStart      ....  0.003300
 Level Shifting         CNVShift        .... on
   Level shift para.    LevelShift      ....    0.2500
   Turn off err/grad.   ShiftErr        ....    0.0010
 Zerner damping         CNVZerner       .... off
 Static damping         CNVDamp         .... on
   Fraction old density DampFac         ....    0.7000
   Max. Damping (<1)    DampMax         ....    0.9800
   Min. Damping (>=0)   DampMin         ....    0.0000
   Turn off err/grad.   DampErr         ....    0.1000
 Fernandez-Rico         CNVRico         .... off

SCF Procedure:
 Maximum # iterations   MaxIter         ....   125
 SCF integral mode      SCFMode         .... Conventional
 Integral Buffer length BufferLength    .... 1048576
 Integral index format  IndFormat       ....     0
 Integral value format  ValFormat       ....     0
 Integral Storage       Thresh          ....  1.000e-08 Eh

Convergence Tolerance:
 Convergence Check Mode ConvCheckMode   .... Total+1el-Energy
 Energy Change          TolE            ....  1.000e-06 Eh
 1-El. energy change                    ....  1.000e-03 Eh
 Orbital Gradient       TolG            ....  5.000e-05
 Orbital Rotation angle TolX            ....  5.000e-05
 DIIS Error             TolErr          ....  1.000e-06


Diagonalization of the overlap matrix:
Smallest eigenvalue                        ... 1.697e-01
Time for diagonalization                   ...    0.003 sec
Threshold for overlap eigenvalues          ... 1.000e-08
Number of eigenvalues below threshold      ... 0
Time for construction of square roots      ...    0.001 sec
Total time needed                          ...    0.004 sec

-------------------------------
INITIAL GUESS: EXTENDED HUECKEL
-------------------------------
EHT matrix was read from disk
EHT matrix was diagonalized
Initial density was built
                      ------------------
                      INITIAL GUESS DONE
                      ------------------

 InCore treatment chosen:
   Memory dedicated               ...    1024 MB
   Memory needed                  ...      0 MB
   Number of tiny    integrals    ...       0
   Number of small   integrals    ...       0
   Number of regular integrals    ...    7392

--------------
SCF ITERATIONS
--------------
ITER       Energy         Delta-E        Max-DP      RMS-DP      [F,P]     Damp
  0    -22.5216683883   0.000000000000 0.04125650  0.00144415  0.1044420 0.7000
  1    -22.5634738571  -0.041805468842 0.03908199  0.00135980  0.0736427 0.7000
                               ***Turning on DIIS***
  2    -22.5943868851  -0.030913027982 0.09949684  0.00348849  0.0483364 0.0000
  3    -22.6756124384  -0.081225553270 0.01761939  0.00071710  0.0209710 0.0000
  4    -22.6607182009   0.014894237512 0.01081536  0.00049436  0.0068039 0.0000
  5    -22.6776666772  -0.016948476327 0.00762057  0.00033390  0.0039022 0.0000
  6    -22.6795944430  -0.001927765778 0.00575010  0.00023692  0.0020839 0.0000
                      *** Initiating the SOSCF procedure ***
                           *** Shutting down DIIS ***
                      *** Re-Reading the Fockian *** 
                      *** Removing any level shift *** 
ITER      Energy       Delta-E        Grad      Rot      Max-DP    RMS-DP
  7    -22.67559970   0.0039947445  0.003017  0.003017  0.003428  0.000133
  8    -22.67360872   0.0019909827  0.000798  0.002190  0.001696  0.000061
  9    -22.67362298  -0.0000142638  0.000351  0.002136  0.001893  0.000064
 10    -22.67362818  -0.0000051965  0.000028  0.000077  0.000125  0.000004
                 **** Energy Check signals convergence ****
              ***Rediagonalizing the Fockian in SOSCF/NRSCF***

               *****************************************************
               *                     SUCCESS                       *
               *           SCF CONVERGED AFTER  11 CYCLES          *
               *****************************************************


----------------
TOTAL SCF ENERGY
----------------

Total Energy       :          -22.67362822 Eh            -616.98079 eV

Components:
Nuclear Repulsion  :          669.28784268 Eh           18212.24809 eV
Electronic Energy  :         -691.96147091 Eh          -18829.22888 eV

One Electron Energy:        -1293.48470543 Eh          -35197.50824 eV
Two Electron Energy:          601.52323452 Eh           16368.27936 eV


---------------
SCF CONVERGENCE
---------------

  Last Energy change         ...   -4.7766e-08  Tolerance :   1.0000e-06
  Last MAX-Density change    ...    4.4865e-05  Tolerance :   1.0000e-05
  Last RMS-Density change    ...    1.3605e-06  Tolerance :   1.0000e-06
  Last Orbital Gradient      ...    1.0195e-05  Tolerance :   5.0000e-05
  Last Orbital Rotation      ...    2.0441e-05  Tolerance :   5.0000e-05

             **** THE GBW FILE WAS UPDATED (/Users/mattyjones/GoogleDrive/Boise/Code/MorphCT/tests/output_EZ/donor_polymer/chromophores/input_orca/pair/00006-00016.gbw) ****
             **** DENSITY FILE WAS UPDATED (/Users/mattyjones/GoogleDrive/Boise/Code/MorphCT/tests/output_EZ/donor_polymer/chromophores/input_orca/pair/00006-00016.scfp.tmp) ****
             **** ENERGY FILE WAS UPDATED (/Users/mattyjones/GoogleDrive/Boise/Code/MorphCT/tests/output_EZ/donor_polymer/chromophores/input_orca/pair/00006-00016.en.tmp) ****
----------------
ORBITAL ENERGIES
----------------

  NO   OCC          E(Eh)            E(eV) 
   0   2.0000      -1.557270       -42.3755 
   1   2.0000      -1.555803       -42.3356 
   2   2.0000      -1.404419       -38.2162 
   3   2.0000      -1.394593       -37.9488 
   4   2.0000      -1.283615       -34.9289 
   5   2.0000      -1.283300       -34.9204 
   6   2.0000      -1.182527       -32.1782 
   7   2.0000      -1.177819       -32.0501 
   8   2.0000      -1.114084       -30.3158 
   9   2.0000      -1.110351       -30.2142 
  10   2.0000      -1.064578       -28.9686 
  11   2.0000      -1.059874       -28.8406 
  12   2.0000      -0.962071       -26.1793 
  13   2.0000      -0.953602       -25.9488 
  14   2.0000      -0.904095       -24.6017 
  15   2.0000      -0.886561       -24.1245 
  16   2.0000      -0.857574       -23.3358 
  17   2.0000      -0.846063       -23.0225 
  18   2.0000      -0.838613       -22.8198 
  19   2.0000      -0.828482       -22.5441 
  20   2.0000      -0.788203       -21.4481 
  21   2.0000      -0.783474       -21.3194 
  22   2.0000      -0.723864       -19.6974 
  23   2.0000      -0.721229       -19.6256 
  24   2.0000      -0.699972       -19.0472 
  25   2.0000      -0.697687       -18.9850 
  26   2.0000      -0.679128       -18.4800 
  27   2.0000      -0.662021       -18.0145 
  28   2.0000      -0.645551       -17.5663 
  29   2.0000      -0.641063       -17.4442 
  30   2.0000      -0.619785       -16.8652 
  31   2.0000      -0.617701       -16.8085 
  32   2.0000      -0.590991       -16.0817 
  33   2.0000      -0.586807       -15.9678 
  34   2.0000      -0.576837       -15.6965 
  35   2.0000      -0.575410       -15.6577 
  36   2.0000      -0.575055       -15.6480 
  37   2.0000      -0.573633       -15.6094 
  38   2.0000      -0.553506       -15.0617 
  39   2.0000      -0.543775       -14.7969 
  40   2.0000      -0.534573       -14.5465 
  41   2.0000      -0.533668       -14.5218 
  42   2.0000      -0.520523       -14.1642 
  43   2.0000      -0.512007       -13.9324 
  44   2.0000      -0.509507       -13.8644 
  45   2.0000      -0.505128       -13.7452 
  46   2.0000      -0.495275       -13.4771 
  47   2.0000      -0.494682       -13.4610 
  48   2.0000      -0.488432       -13.2909 
  49   2.0000      -0.483458       -13.1556 
  50   2.0000      -0.478806       -13.0290 
  51   2.0000      -0.474796       -12.9198 
  52   2.0000      -0.469654       -12.7799 
  53   2.0000      -0.469307       -12.7705 
  54   2.0000      -0.465767       -12.6742 
  55   2.0000      -0.462470       -12.5845 
  56   2.0000      -0.438332       -11.9276 
  57   2.0000      -0.437156       -11.8956 
  58   2.0000      -0.357694        -9.7334 
  59   2.0000      -0.357005        -9.7146 
  60   2.0000      -0.305205        -8.3050 
  61   2.0000      -0.304682        -8.2908 
  62   0.0000       0.007249         0.1973 
  63   0.0000       0.007604         0.2069 
  64   0.0000       0.065968         1.7951 
  65   0.0000       0.069211         1.8833 
  66   0.0000       0.075202         2.0463 
  67   0.0000       0.078196         2.1278 
  68   0.0000       0.083969         2.2849 
  69   0.0000       0.085446         2.3251 
  70   0.0000       0.104275         2.8375 
  71   0.0000       0.104717         2.8495 
  72   0.0000       0.107295         2.9196 
  73   0.0000       0.107589         2.9277 
  74   0.0000       0.122543         3.3346 
  75   0.0000       0.125439         3.4134 
  76   0.0000       0.142345         3.8734 
  77   0.0000       0.144298         3.9266 
  78   0.0000       0.158818         4.3217 
  79   0.0000       0.159801         4.3484 
  80   0.0000       0.166012         4.5174 
  81   0.0000       0.166336         4.5262 
  82   0.0000       0.167574         4.5599 
  83   0.0000       0.168133         4.5751 
  84   0.0000       0.203541         5.5386 
  85   0.0000       0.204180         5.5560 
  86   0.0000       0.229463         6.2440 
  87   0.0000       0.230411         6.2698 
  88   0.0000       0.231388         6.2964 
  89   0.0000       0.233740         6.3604 
  90   0.0000       0.236659         6.4398 
  91   0.0000       0.237056         6.4506 
  92   0.0000       0.238136         6.4800 
  93   0.0000       0.239479         6.5165 
  94   0.0000       0.240063         6.5324 
  95   0.0000       0.241998         6.5851 
  96   0.0000       0.242686         6.6038 
  97   0.0000       0.244121         6.6429 
  98   0.0000       0.244596         6.6558 
  99   0.0000       0.244953         6.6655 
 100   0.0000       0.248155         6.7526 
 101   0.0000       0.250388         6.8134 
 102   0.0000       0.257171         6.9980 
 103   0.0000       0.257618         7.0101 
 104   0.0000       0.266344         7.2476 
 105   0.0000       0.267020         7.2660 
 106   0.0000       0.276802         7.5322 
 107   0.0000       0.282264         7.6808 
 108   0.0000       0.303234         8.2514 
 109   0.0000       0.307911         8.3787 
 110   0.0000       0.310058         8.4371 
 111   0.0000       0.311062         8.4644 
 112   0.0000       0.341427         9.2907 
 113   0.0000       0.341974         9.3056 
 114   0.0000       0.354573         9.6484 
 115   0.0000       0.354956         9.6588 
 116   0.0000       0.414348        11.2750 
 117   0.0000       0.417311        11.3556 
 118   0.0000       0.428062        11.6482 
 119   0.0000       0.428871        11.6702 
-------
TIMINGS
-------

Total SCF time: 0 days 0 hours 0 min 0 sec 

Total time                  ....       0.127 sec
Sum of individual times     ....       0.102 sec  ( 80.7%)

Fock matrix formation       ....       0.048 sec  ( 37.8%)
Diagonalization             ....       0.025 sec  ( 19.4%)
Density matrix formation    ....       0.005 sec  (  4.3%)
Population analysis         ....       0.000 sec  (  0.0%)
Initial guess               ....       0.003 sec  (  2.5%)
Orbital Transformation      ....       0.000 sec  (  0.0%)
Orbital Orthonormalization  ....       0.000 sec  (  0.0%)
DIIS solution               ....       0.013 sec  (  9.9%)
SOSCF solution              ....       0.009 sec  (  6.8%)

-------------------------   --------------------
FINAL SINGLE POINT ENERGY       -22.673628223816
-------------------------   --------------------


                            ***************************************
                            *     ORCA property calculations      *
                            ***************************************

                                    ---------------------
                                    Active property flags
                                    ---------------------
   (+) Dipole Moment


------------------------------------------------------------------------------
                       ORCA ELECTRIC PROPERTIES CALCULATION
------------------------------------------------------------------------------

Dipole Moment Calculation                       ... on
Quadrupole Moment Calculation                   ... off
Polarizability Calculation                      ... off
GBWName                                         ... /Users/mattyjones/GoogleDrive/Boise/Code/MorphCT/tests/output_EZ/donor_polymer/chromophores/input_orca/pair/00006-00016.gbw
Electron density file                           ... /Users/mattyjones/GoogleDrive/Boise/Code/MorphCT/tests/output_EZ/donor_polymer/chromophores/input_orca/pair/00006-00016.scfp.tmp

-------------
DIPOLE MOMENT
-------------
                                X             Y             Z
Electronic contribution:     -0.38746      43.80460     -70.26382
Nuclear contribution   :      0.61247     -22.88573      38.39733
                        -----------------------------------------
Total Dipole Moment    :      0.22501      20.91887     -31.86649
                        -----------------------------------------
Magnitude (a.u.)       :     38.11985
Magnitude (Debye)      :     96.89297


Timings for individual modules:

Sum of individual times         ...        0.225 sec (=   0.004 min)
STO integral calculation        ...        0.052 sec (=   0.001 min)  23.3 %
SCF iterations                  ...        0.172 sec (=   0.003 min)  76.7 %
                             ****ORCA TERMINATED NORMALLY****
TOTAL RUN TIME: 0 days 0 hours 0 minutes 0 seconds 551 msec

