
                                 *****************
                                 * O   R   C   A *
                                 *****************

           --- An Ab Initio, DFT and Semiempirical electronic structure package ---

                  #######################################################
                  #                        -***-                        #
                  #  Department of molecular theory and spectroscopy    #
                  #              Directorship: Frank Neese              #
                  # Max Planck Institute for Chemical Energy Conversion #
                  #                  D-45470 Muelheim/Ruhr              #
                  #                       Germany                       #
                  #                                                     #
                  #                  All rights reserved                #
                  #                        -***-                        #
                  #######################################################


                         Program Version 3.0.3 - RELEASE   -


 With contributions from (in alphabetic order):
   Ute Becker             : Parallelization
   Dmytro Bykov           : SCF Hessian
   Dmitry Ganyushin       : Spin-Orbit,Spin-Spin,Magnetic field MRCI
   Andreas Hansen         : Spin unrestricted coupled pair/coupled cluster methods
   Dimitrios Liakos       : Extrapolation schemes; parallel MDCI
   Robert Izsak           : Overlap fitted RIJCOSX, COSX-SCS-MP3
   Christian Kollmar      : KDIIS, OOCD, Brueckner-CCSD(T), CCSD density
   Simone Kossmann        : Meta GGA functionals, TD-DFT gradient, OOMP2, MP2 Hessian
   Taras Petrenko         : DFT Hessian,TD-DFT gradient, ASA and ECA modules, normal mode analysis, Resonance Raman, ABS, FL, XAS/XES, NRVS
   Christoph Reimann      : Effective Core Potentials
   Michael Roemelt        : Restricted open shell CIS
   Christoph Riplinger    : Improved optimizer, TS searches, QM/MM, DLPNO-CCSD
   Barbara Sandhoefer     : DKH picture change effects
   Igor Schapiro          : Molecular dynamics
   Kantharuban Sivalingam : CASSCF convergence, NEVPT2
   Boris Wezisla          : Elementary symmetry handling
   Frank Wennmohs         : Technical directorship


 We gratefully acknowledge several colleagues who have allowed us to
 interface, adapt or use parts of their codes:
   Stefan Grimme, W. Hujo, H. Kruse, T. Risthaus : VdW corrections, initial TS optimization,
                                                   DFT functionals, gCP
   Ed Valeev                                     : LibInt (2-el integral package), F12 methods
   Garnet Chan, S. Sharma, R. Olivares           : DMRG
   Ulf Ekstrom                                   : XCFun DFT Library
   Mihaly Kallay                                 : mrcc  (arbitrary order and MRCC methods)
   Andreas Klamt, Michael Diedenhofen            : otool_cosmo (COSMO solvation model)
   Frank Weinhold                                : gennbo (NPA and NBO analysis)
   Christopher J. Cramer and Donald G. Truhlar   : smd solvation model


 Your calculation uses the libint2 library for the computation of 2-el integrals
 For citations please refer to: http://libint.valeyev.net

 This ORCA versions uses:
   CBLAS   interface :  Fast vector & matrix operations
   LAPACKE interface :  Fast linear algebra routines
   SCALAPACK package :  Parallel linear algebra routines


leaving
================================================================================
                                        WARNINGS
                       Please study these warnings very carefully!
================================================================================
Now building the actual basis set

WARNING: Direct SCF is incompatible with Method<>HF and Method<>DFT
  ===> : conventional SCF is chosen

WARNING: The NDO methods need Guess=HUECKEL or Guess=HCORE or Guess=MOREAD
  ===> : Guess is set to Hueckel

WARNING: The NDO methods need %rel::SOCType==1
  ===> : %rel::SOCType is set to 1

WARNING: The NDO methods cannot have frozencore=1
  ===> : %method FrozenCore=0 end


INFO   : the flag for use of LIBINT has been found!

================================================================================
                                       INPUT FILE
================================================================================
NAME = /Users/mattyjones/GoogleDrive/Boise/Code/MorphCT/tests/output_EZ/donor_polymer/chromophores/input_orca/pair/00002-00018.inp
|  1> # ================================================================
|  2> # Orca input file made by Matty Jones
|  3> # ================================================================
|  4> ! ZINDO/S 
|  5> ! NOPOP
|  6> ! NOMOPRINT
|  7> * xyz 0   1
|  8>  C  13.11679  12.54871  -4.14742
|  9>  C  12.28291  11.43639  -4.02372
| 10>  C  12.82283  10.38909  -3.21383
| 11>  C  14.08946  10.67588  -2.69542
| 12>  S  14.46932  12.18886  -3.25846
| 13>  H  11.17420  11.47803  -4.27785
| 14>  C  11.95747  9.04947  -3.01103
| 15>  C  10.28342  9.22168  -2.90793
| 16>  C  9.74195  9.19368  -4.51929
| 17>  H  8.71238  9.71490  -4.54601
| 18>  H  10.47591  9.77101  -5.19585
| 19>  H  9.82622  8.34769  -2.32244
| 20>  H  10.01558  10.22369  -2.42020
| 21>  H  12.20403  8.54813  -1.98168
| 22>  H  12.21529  8.29102  -3.85239
| 23>  C  9.62556  7.67710  -5.09620
| 24>  C  9.20062  7.52861  -6.72534
| 25>  C  8.91653  8.96013  -7.56053
| 26>  H  8.37343  8.71401  -8.55383
| 27>  H  9.92472  9.47926  -7.79034
| 28>  H  8.25246  9.66124  -6.92404
| 29>  H  10.06134  6.97708  -7.26170
| 30>  H  8.24339  6.88864  -6.78160
| 31>  H  10.64402  7.14011  -4.97063
| 32>  H  8.83293  7.10143  -4.47870
| 33>  C  -12.07826  -11.52733  0.84073
| 34>  C  -11.48870  -11.07769  2.02317
| 35>  C  -12.29472  -10.15859  2.76469
| 36>  C  -13.52695  -9.88107  2.16476
| 37>  S  -13.55396  -10.77492  0.76806
| 38>  H  -10.66460  -11.65374  2.57515
| 39>  C  -11.62841  -9.61391  4.12221
| 40>  C  -10.02327  -9.13126  3.76799
| 41>  C  -8.89568  -8.58049  4.88992
| 42>  H  -8.96304  -7.42376  4.89498
| 43>  H  -7.85206  -8.87408  4.47277
| 44>  H  -9.49919  -10.02921  3.26522
| 45>  H  -10.13568  -8.28585  2.98558
| 46>  H  -12.20593  -8.69210  4.51808
| 47>  H  -11.59729  -10.44278  4.92910
| 48>  C  -9.00136  -9.12839  6.41567
| 49>  C  -9.90980  -8.18339  7.47356
| 50>  C  -11.49647  -8.68963  7.68425
| 51>  H  -12.04577  -8.72535  6.67189
| 52>  H  -12.03749  -7.94565  8.38839
| 53>  H  -11.49464  -9.74285  8.16621
| 54>  H  -9.38690  -8.19217  8.50138
| 55>  H  -9.93148  -7.10346  7.06789
| 56>  H  -7.93442  -9.21167  6.86097
| 57>  H  -9.47110  -10.18759  6.40679
| 58>  H  12.92571  13.43637  -4.69437
| 59>  H  14.68263  10.05602  -2.07291
| 60>  H  -11.66891  -12.20660  0.13745
| 61>  H  -14.28504  -9.23473  2.52686
| 62> *
| 63> 
| 64>                          ****END OF INPUT****
================================================================================

                       ****************************
                       * Single Point Calculation *
                       ****************************

---------------------------------
CARTESIAN COORDINATES (ANGSTROEM)
---------------------------------
  C     13.116790   12.548710   -4.147420
  C     12.282910   11.436390   -4.023720
  C     12.822830   10.389090   -3.213830
  C     14.089460   10.675880   -2.695420
  S     14.469320   12.188860   -3.258460
  H     11.174200   11.478030   -4.277850
  C     11.957470    9.049470   -3.011030
  C     10.283420    9.221680   -2.907930
  C      9.741950    9.193680   -4.519290
  H      8.712380    9.714900   -4.546010
  H     10.475910    9.771010   -5.195850
  H      9.826220    8.347690   -2.322440
  H     10.015580   10.223690   -2.420200
  H     12.204030    8.548130   -1.981680
  H     12.215290    8.291020   -3.852390
  C      9.625560    7.677100   -5.096200
  C      9.200620    7.528610   -6.725340
  C      8.916530    8.960130   -7.560530
  H      8.373430    8.714010   -8.553830
  H      9.924720    9.479260   -7.790340
  H      8.252460    9.661240   -6.924040
  H     10.061340    6.977080   -7.261700
  H      8.243390    6.888640   -6.781600
  H     10.644020    7.140110   -4.970630
  H      8.832930    7.101430   -4.478700
  C    -12.078260  -11.527330    0.840730
  C    -11.488700  -11.077690    2.023170
  C    -12.294720  -10.158590    2.764690
  C    -13.526950   -9.881070    2.164760
  S    -13.553960  -10.774920    0.768060
  H    -10.664600  -11.653740    2.575150
  C    -11.628410   -9.613910    4.122210
  C    -10.023270   -9.131260    3.767990
  C     -8.895680   -8.580490    4.889920
  H     -8.963040   -7.423760    4.894980
  H     -7.852060   -8.874080    4.472770
  H     -9.499190  -10.029210    3.265220
  H    -10.135680   -8.285850    2.985580
  H    -12.205930   -8.692100    4.518080
  H    -11.597290  -10.442780    4.929100
  C     -9.001360   -9.128390    6.415670
  C     -9.909800   -8.183390    7.473560
  C    -11.496470   -8.689630    7.684250
  H    -12.045770   -8.725350    6.671890
  H    -12.037490   -7.945650    8.388390
  H    -11.494640   -9.742850    8.166210
  H     -9.386900   -8.192170    8.501380
  H     -9.931480   -7.103460    7.067890
  H     -7.934420   -9.211670    6.860970
  H     -9.471100  -10.187590    6.406790
  H     12.925710   13.436370   -4.694370
  H     14.682630   10.056020   -2.072910
  H    -11.668910  -12.206600    0.137450
  H    -14.285040   -9.234730    2.526860

----------------------------
CARTESIAN COORDINATES (A.U.)
----------------------------
  NO LB      ZA    FRAG    MASS        X           Y           Z
   0 C     4.0000    0    12.011         24.787140856156935         23.713625233998950         -7.837487962347678
   1 C     4.0000    0    12.011         23.211336027602680         21.611645060715663         -7.603728839581619
   2 C     4.0000    0    12.011         24.231636961829444         19.632534880659936         -6.073258540980136
   3 C     4.0000    0    12.011         26.625220774838120         20.174489438607210         -5.093605615894020
   4 S     6.0000    0    32.060         27.343052144069446         23.033607284707386         -6.157597018337041
   5 H     1.0000    0     1.008         21.116177765662851         21.690333256932146         -8.083964941995026
   6 C     4.0000    0    12.011         22.596343554579349         17.101019957136348         -5.690022081020906
   7 C     4.0000    0    12.011         19.432847520088476         17.426449694658928         -5.495191316613625
   8 C     4.0000    0    12.011         18.409617510354135         17.373537362909133         -8.540220419768973
   9 H     1.0000    0     1.008         16.464012174652833         18.358500418431568         -8.590713902067350
  10 H     1.0000    0     1.008         19.796600903606979         18.464532951805889         -9.818733532934736
  11 H     1.0000    0     1.008         18.568864731659680         15.774847950873093         -4.388775562464072
  12 H     1.0000    0     1.008         18.926703272379008         19.319974178109362         -4.573515189316213
  13 H     1.0000    0     1.008         23.062274430158972         16.153624657156271         -3.744832485069066
  14 H     1.0000    0     1.008         23.083552746426925         15.667757170863775         -7.279962061056891
  15 C     4.0000    0    12.011         18.189672285627044         14.507616502726842         -9.630422323689482
  16 C     4.0000    0    12.011         17.386652062278547         14.227011069100874        -12.709050757505951
  17 C     4.0000    0    12.011         16.849799764892857         16.932191824331824        -14.287331127295641
  18 H     1.0000    0     1.008         15.823489501560228         16.467092428251128        -16.164396096119621
  19 H     1.0000    0     1.008         18.755002755850924         17.913205352234364        -14.721609090132082
  20 H     1.0000    0     1.008         15.594889331139772         18.257097714085351        -13.084539340316104
  21 H     1.0000    0     1.008         19.013177140267246         13.184770414459287        -13.722624266695954
  22 H     1.0000    0     1.008         15.577749515105106         13.017643035175290        -12.815366749800360
  23 H     1.0000    0     1.008         20.114282763980480         13.492852466072469         -9.393129413052991
  24 H     1.0000    0     1.008         16.691818660097042         13.419757859212394         -8.463516435993110
  25 C     4.0000    0    12.011        -22.824603574295697        -21.783496755334461          1.588749452571614
  26 C     4.0000    0    12.011        -21.710496634781084        -20.933800296478111          3.823237222365459
  27 C     4.0000    0    12.011        -23.233653693244293        -19.196953006791087          5.224506945190745
  28 C     4.0000    0    12.011        -25.562230927246073        -18.672516210105261          4.090803545667368
  29 S     6.0000    0    32.060        -25.613272430123288        -20.361647914910773          1.451423054419557
  30 H     1.0000    0     1.008        -20.153173327816582        -22.022377035923448          4.866328253767310
  31 C     4.0000    0    12.011        -21.974510272951225        -18.167656976166860          7.789847966511522
  32 C     4.0000    0    12.011        -18.941235266348865        -17.255580657629768          7.120469175353938
  33 C     4.0000    0    12.011        -16.810398975000602        -16.214776194849961          9.240609616784207
  34 H     1.0000    0     1.008        -16.937690927381535        -14.028873283959230          9.250171631021850
  35 H     1.0000    0     1.008        -14.838242987117702        -16.769580890507900          8.452310360018956
  36 H     1.0000    0     1.008        -17.950867594083416        -18.952460239584358          6.170371567002349
  37 H     1.0000    0     1.008        -19.153659381062955        -15.657987286751403          5.641928550912611
  38 H     1.0000    0     1.008        -23.065864909813424        -16.425688528656913          8.537933851146930
  39 H     1.0000    0     1.008        -21.915701995663593        -19.733994276790170          9.314649086711242
  40 C     4.0000    0    12.011        -17.010105232833396        -17.250157143625415         12.123859265614557
  41 C     4.0000    0    12.011        -18.726808041932820        -15.464365947069830         14.122981645428510
  42 C     4.0000    0    12.011        -21.725179806841652        -16.421020905106126         14.521128044584378
  43 H     1.0000    0     1.008        -22.763206372204593        -16.488521922609795         12.608044895647859
  44 H     1.0000    0     1.008        -22.747559439815728        -15.015102455991393         15.851759804523686
  45 H     1.0000    0     1.008        -21.721721608016576        -18.411318263874669         15.431900452089064
  46 H     1.0000    0     1.008        -17.738670246505400        -15.480957742525662         16.065279960395451
  47 H     1.0000    0     1.008        -18.767777304516233        -13.423594003264254         13.356376444680675
  48 H     1.0000    0     1.008        -14.993880831507457        -17.407533536058377         12.965354313049691
  49 H     1.0000    0     1.008        -17.897785186981565        -19.251755064674803         12.107078497545336
  50 H     1.0000    0     1.008         24.426051986487263         25.391059534035488         -8.871073671295907
  51 H     1.0000    0     1.008         27.746149625696187         19.003123797234785         -3.917232200266701
  52 H     1.0000    0     1.008        -22.051044181375033        -23.067131026323150          0.259742857107476
  53 H     1.0000    0     1.008        -26.994813412110439        -17.451110620706601          4.775073378760254

--------------------------------
INTERNAL COORDINATES (ANGSTROEM)
--------------------------------
 C      0   0   0   0.000000     0.000     0.000
 C      1   0   0   1.395677     0.000     0.000
 C      2   1   0   1.429781   114.102     0.000
 C      3   2   1   1.398338   113.692     0.000
 S      1   2   3   1.658035   105.480     0.000
 H      2   1   3   1.138224   122.211   163.047
 C      3   2   1   1.607656   118.591   180.620
 C      7   3   2   1.686040   117.197   324.252
 C      8   7   3   1.700134   104.867    86.554
 H      9   8   7   1.154296   107.372   202.258
 H      9   8   7   1.153144   110.189   321.027
 H      8   7   3   1.147035   110.435   205.177
 H      8   7   3   1.146143   110.325   328.058
 H      7   3   2   1.171194   110.747   208.537
 H      7   3   2   1.161725   109.463    89.469
 C      9   8   7   1.626772   111.978    80.891
 C     16   9   8   1.690184   116.214   184.164
 C     17  16   9   1.681517   116.515   358.854
 H     18  17  16   1.158524   108.917   194.851
 H     18  17  16   1.157046   109.475    75.173
 H     18  17  16   1.156574   109.861   314.609
 H     17  16   9   1.154429   107.599   119.666
 H     17  16   9   1.152830   107.732   237.455
 H     16   9   8   1.158183   109.322   304.768
 H     16   9   8   1.158000   108.864    62.865
 C     23  17  16  28.464317   159.867   339.824
 C     26  23  17   1.395680    73.552    22.454
 C     27  26  23   1.429778   114.101   105.984
 C     28  27  26   1.398329   113.694     0.000
 S     26  23  17   1.658039   109.274   123.498
 H     27  26  23   1.147021   123.326   263.090
 C     28  27  26   1.607329   114.971   180.683
 C     32  28  27   1.713154   108.014    47.278
 C     33  32  28   1.683310   125.591   183.940
 H     34  33  32   1.158701   106.894   265.818
 H     34  33  32   1.161616   106.247   150.874
 H     33  32  28   1.154882   107.226   306.057
 H     33  32  28   1.157376   104.748    61.245
 H     32  28  27   1.157573   110.602   165.622
 H     32  28  27   1.157180   110.937   288.228
 C     34  33  32   1.624585   118.166    29.350
 C     41  34  33   1.684464   115.830   267.456
 C     42  41  34   1.678747   114.795    96.912
 H     43  42  41   1.152336   110.464   302.635
 H     43  42  41   1.158457   108.906   182.531
 H     43  42  41   1.158258   108.962    63.288
 H     42  41  34   1.153220   108.115   217.944
 H     42  41  34   1.153814   108.325   336.174
 H     41  34  33   1.159133   108.975   146.556
 H     41  34  33   1.158723   109.115    28.744
 H      1   2   3   1.060003   127.260   180.000
 H      4   3   2   1.059998   127.206   180.001
 H     26  23  17   1.059990    87.778   252.423
 H     29  28  27   1.059987   127.207   180.000

---------------------------
INTERNAL COORDINATES (A.U.)
---------------------------
 C      0   0   0   0.000000     0.000     0.000
 C      1   0   0   2.637447     0.000     0.000
 C      2   1   0   2.701894   114.102     0.000
 C      3   2   1   2.642476   113.692     0.000
 S      1   2   3   3.133232   105.480     0.000
 H      2   1   3   2.150932   122.211   163.047
 C      3   2   1   3.038029   118.591   180.620
 C      7   3   2   3.186153   117.197   324.252
 C      8   7   3   3.212787   104.867    86.554
 H      9   8   7   2.181303   107.372   202.258
 H      9   8   7   2.179126   110.189   321.027
 H      8   7   3   2.167582   110.435   205.177
 H      8   7   3   2.165896   110.325   328.058
 H      7   3   2   2.213236   110.747   208.537
 H      7   3   2   2.195341   109.463    89.469
 C      9   8   7   3.074153   111.978    80.891
 C     16   9   8   3.193984   116.214   184.164
 C     17  16   9   3.177606   116.515   358.854
 H     18  17  16   2.189293   108.917   194.851
 H     18  17  16   2.186500   109.475    75.173
 H     18  17  16   2.185608   109.861   314.609
 H     17  16   9   2.181555   107.599   119.666
 H     17  16   9   2.178532   107.732   237.455
 H     16   9   8   2.188648   109.322   304.768
 H     16   9   8   2.188303   108.864    62.865
 C     23  17  16  53.789763   159.867   339.824
 C     26  23  17   2.637452    73.552    22.454
 C     27  26  23   2.701889   114.101   105.984
 C     28  27  26   2.642459   113.694     0.000
 S     26  23  17   3.133239   109.274   123.498
 H     27  26  23   2.167555   123.326   263.090
 C     28  27  26   3.037411   114.971   180.683
 C     32  28  27   3.237392   108.014    47.278
 C     33  32  28   3.180996   125.591   183.940
 H     34  33  32   2.189627   106.894   265.818
 H     34  33  32   2.195136   106.247   150.874
 H     33  32  28   2.182410   107.226   306.057
 H     33  32  28   2.187124   104.748    61.245
 H     32  28  27   2.187497   110.602   165.622
 H     32  28  27   2.186753   110.937   288.228
 C     34  33  32   3.070020   118.166    29.350
 C     41  34  33   3.183176   115.830   267.456
 C     42  41  34   3.172372   114.795    96.912
 H     43  42  41   2.177600   110.464   302.635
 H     43  42  41   2.189166   108.906   182.531
 H     43  42  41   2.188790   108.962    63.288
 H     42  41  34   2.179269   108.115   217.944
 H     42  41  34   2.180393   108.325   336.174
 H     41  34  33   2.190443   108.975   146.556
 H     41  34  33   2.189669   109.115    28.744
 H      1   2   3   2.003115   127.260   180.000
 H      4   3   2   2.003106   127.206   180.001
 H     26  23  17   2.003090    87.778   252.423
 H     29  28  27   2.003085   127.207   180.000

----------------------------
SLATER BASIS SET DIM= 120
----------------------------
  0 C     2 shells
 l=0 nsto= 1
    2       1.625000000000        1.000000000000
 l=1 nsto= 1
    2       1.625000000000        1.000000000000
  1 C     2 shells
 l=0 nsto= 1
    2       1.625000000000        1.000000000000
 l=1 nsto= 1
    2       1.625000000000        1.000000000000
  2 C     2 shells
 l=0 nsto= 1
    2       1.625000000000        1.000000000000
 l=1 nsto= 1
    2       1.625000000000        1.000000000000
  3 C     2 shells
 l=0 nsto= 1
    2       1.625000000000        1.000000000000
 l=1 nsto= 1
    2       1.625000000000        1.000000000000
  4 S     2 shells
 l=0 nsto= 1
    3       1.925000000000        1.000000000000
 l=1 nsto= 1
    3       1.925000000000        1.000000000000
  5 H     1 shells
 l=0 nsto= 1
    1       1.200000000000        1.000000000000
  6 C     2 shells
 l=0 nsto= 1
    2       1.625000000000        1.000000000000
 l=1 nsto= 1
    2       1.625000000000        1.000000000000
  7 C     2 shells
 l=0 nsto= 1
    2       1.625000000000        1.000000000000
 l=1 nsto= 1
    2       1.625000000000        1.000000000000
  8 C     2 shells
 l=0 nsto= 1
    2       1.625000000000        1.000000000000
 l=1 nsto= 1
    2       1.625000000000        1.000000000000
  9 H     1 shells
 l=0 nsto= 1
    1       1.200000000000        1.000000000000
 10 H     1 shells
 l=0 nsto= 1
    1       1.200000000000        1.000000000000
 11 H     1 shells
 l=0 nsto= 1
    1       1.200000000000        1.000000000000
 12 H     1 shells
 l=0 nsto= 1
    1       1.200000000000        1.000000000000
 13 H     1 shells
 l=0 nsto= 1
    1       1.200000000000        1.000000000000
 14 H     1 shells
 l=0 nsto= 1
    1       1.200000000000        1.000000000000
 15 C     2 shells
 l=0 nsto= 1
    2       1.625000000000        1.000000000000
 l=1 nsto= 1
    2       1.625000000000        1.000000000000
 16 C     2 shells
 l=0 nsto= 1
    2       1.625000000000        1.000000000000
 l=1 nsto= 1
    2       1.625000000000        1.000000000000
 17 C     2 shells
 l=0 nsto= 1
    2       1.625000000000        1.000000000000
 l=1 nsto= 1
    2       1.625000000000        1.000000000000
 18 H     1 shells
 l=0 nsto= 1
    1       1.200000000000        1.000000000000
 19 H     1 shells
 l=0 nsto= 1
    1       1.200000000000        1.000000000000
 20 H     1 shells
 l=0 nsto= 1
    1       1.200000000000        1.000000000000
 21 H     1 shells
 l=0 nsto= 1
    1       1.200000000000        1.000000000000
 22 H     1 shells
 l=0 nsto= 1
    1       1.200000000000        1.000000000000
 23 H     1 shells
 l=0 nsto= 1
    1       1.200000000000        1.000000000000
 24 H     1 shells
 l=0 nsto= 1
    1       1.200000000000        1.000000000000
 25 C     2 shells
 l=0 nsto= 1
    2       1.625000000000        1.000000000000
 l=1 nsto= 1
    2       1.625000000000        1.000000000000
 26 C     2 shells
 l=0 nsto= 1
    2       1.625000000000        1.000000000000
 l=1 nsto= 1
    2       1.625000000000        1.000000000000
 27 C     2 shells
 l=0 nsto= 1
    2       1.625000000000        1.000000000000
 l=1 nsto= 1
    2       1.625000000000        1.000000000000
 28 C     2 shells
 l=0 nsto= 1
    2       1.625000000000        1.000000000000
 l=1 nsto= 1
    2       1.625000000000        1.000000000000
 29 S     2 shells
 l=0 nsto= 1
    3       1.925000000000        1.000000000000
 l=1 nsto= 1
    3       1.925000000000        1.000000000000
 30 H     1 shells
 l=0 nsto= 1
    1       1.200000000000        1.000000000000
 31 C     2 shells
 l=0 nsto= 1
    2       1.625000000000        1.000000000000
 l=1 nsto= 1
    2       1.625000000000        1.000000000000
 32 C     2 shells
 l=0 nsto= 1
    2       1.625000000000        1.000000000000
 l=1 nsto= 1
    2       1.625000000000        1.000000000000
 33 C     2 shells
 l=0 nsto= 1
    2       1.625000000000        1.000000000000
 l=1 nsto= 1
    2       1.625000000000        1.000000000000
 34 H     1 shells
 l=0 nsto= 1
    1       1.200000000000        1.000000000000
 35 H     1 shells
 l=0 nsto= 1
    1       1.200000000000        1.000000000000
 36 H     1 shells
 l=0 nsto= 1
    1       1.200000000000        1.000000000000
 37 H     1 shells
 l=0 nsto= 1
    1       1.200000000000        1.000000000000
 38 H     1 shells
 l=0 nsto= 1
    1       1.200000000000        1.000000000000
 39 H     1 shells
 l=0 nsto= 1
    1       1.200000000000        1.000000000000
 40 C     2 shells
 l=0 nsto= 1
    2       1.625000000000        1.000000000000
 l=1 nsto= 1
    2       1.625000000000        1.000000000000
 41 C     2 shells
 l=0 nsto= 1
    2       1.625000000000        1.000000000000
 l=1 nsto= 1
    2       1.625000000000        1.000000000000
 42 C     2 shells
 l=0 nsto= 1
    2       1.625000000000        1.000000000000
 l=1 nsto= 1
    2       1.625000000000        1.000000000000
 43 H     1 shells
 l=0 nsto= 1
    1       1.200000000000        1.000000000000
 44 H     1 shells
 l=0 nsto= 1
    1       1.200000000000        1.000000000000
 45 H     1 shells
 l=0 nsto= 1
    1       1.200000000000        1.000000000000
 46 H     1 shells
 l=0 nsto= 1
    1       1.200000000000        1.000000000000
 47 H     1 shells
 l=0 nsto= 1
    1       1.200000000000        1.000000000000
 48 H     1 shells
 l=0 nsto= 1
    1       1.200000000000        1.000000000000
 49 H     1 shells
 l=0 nsto= 1
    1       1.200000000000        1.000000000000
 50 H     1 shells
 l=0 nsto= 1
    1       1.200000000000        1.000000000000
 51 H     1 shells
 l=0 nsto= 1
    1       1.200000000000        1.000000000000
 52 H     1 shells
 l=0 nsto= 1
    1       1.200000000000        1.000000000000
 53 H     1 shells
 l=0 nsto= 1
    1       1.200000000000        1.000000000000
------------------------------------------------------------------------------
                           ORCA NDO INTEGRAL CALCULATION
------------------------------------------------------------------------------

--------------
NDO PARAMETERS
--------------

Gamma integral treatment              ... Mataga-Nishimoto
Nuclear repulsuion treatment          ... Direct (ZA*ZB/RAB)
Interaction factors:
s-s (sigma) =    1.0000
s-p (sigma) =    1.0000
s-d (sigma) =    1.0000
p-p (sigma) =    1.2670  p-p(pi) =    0.5850
p-d (sigma) =    1.0000  p-d(pi) =    1.0000
d-d (sigma) =    1.0000  d-d(pi) =    1.0000 d-d (delta) =    1.0000

fGamma parameter for Mataga-Nishimoto gamma integrals:    1.2000

--------------------------
Parameters for Element H :
--------------------------
 One-electron parameters (in eV)
  U(s)  =   -13.060000 Beta(s) =    12.000000 Neff(s) =     1.000000
 One-center electron repulsion parameters (in eV)
  G(s,s)=    12.850000
--------------------------
Parameters for Element C :
--------------------------
 One-electron parameters (in eV)
  U(s)  =   -50.870766 Beta(s) =    17.000000 Neff(s) =     2.000000
  U(p)  =   -41.599980 Beta(p) =    17.000000 Neff(p) =     2.000000 
 One-center electron repulsion parameters (in eV)
  G(s,s)=    11.110000
  G(s,p)=    11.110000 G(p,p)  =    11.110000
 Slater-Condon parameters (in eV)
 F2(p,p)=     4.5098 G1(s,p)=    6.8977
--------------------------
Parameters for Element S :
--------------------------
 One-electron parameters (in eV)
  U(s)  =   -69.509597 Beta(s) =    15.000000 Neff(s) =     2.000000
  U(p)  =   -60.725746 Beta(p) =    15.000000 Neff(p) =     4.000000 
 One-center electron repulsion parameters (in eV)
  G(s,s)=    10.090000
  G(s,p)=    10.090000 G(p,p)  =    10.090000
 Slater-Condon parameters (in eV)
 F2(p,p)=     4.5377 G1(s,p)=    3.0756

 Number of atoms                    ....   54
 Number of basis functions          ....  120

 Overlap integrals                  .... done
 One electron matrix                .... done
 Nuclear repulsion                  .... done
 Integral list                      .... done
 Electron-electron repulsion        .... done
-------------------------------------------------------------------------------
                                 ORCA SCF
-------------------------------------------------------------------------------

------------
SCF SETTINGS
------------
Hamiltonian:
 ZDO-Hamiltonian        Method          .... INDO


General Settings:
 Integral files         IntName         .... /Users/mattyjones/GoogleDrive/Boise/Code/MorphCT/tests/output_EZ/donor_polymer/chromophores/input_orca/pair/00002-00018
 Hartree-Fock type      HFTyp           .... RHF
 Total Charge           Charge          ....    0
 Multiplicity           Mult            ....    1
 Number of Electrons    NEL             ....  124
 Basis Dimension        Dim             ....  120
 Nuclear Repulsion      ENuc            ....    673.4251799545 Eh

Convergence Acceleration:
 DIIS                   CNVDIIS         .... on
   Start iteration      DIISMaxIt       ....    12
   Startup error        DIISStart       ....  0.200000
   # of expansion vecs  DIISMaxEq       ....     5
   Bias factor          DIISBfac        ....   1.050
   Max. coefficient     DIISMaxC        ....  10.000
 Newton-Raphson         CNVNR           .... off
 SOSCF                  CNVSOSCF        .... on
   Start iteration      SOSCFMaxIt      ....   150
   Startup grad/error   SOSCFStart      ....  0.003300
 Level Shifting         CNVShift        .... on
   Level shift para.    LevelShift      ....    0.2500
   Turn off err/grad.   ShiftErr        ....    0.0010
 Zerner damping         CNVZerner       .... off
 Static damping         CNVDamp         .... on
   Fraction old density DampFac         ....    0.7000
   Max. Damping (<1)    DampMax         ....    0.9800
   Min. Damping (>=0)   DampMin         ....    0.0000
   Turn off err/grad.   DampErr         ....    0.1000
 Fernandez-Rico         CNVRico         .... off

SCF Procedure:
 Maximum # iterations   MaxIter         ....   125
 SCF integral mode      SCFMode         .... Conventional
 Integral Buffer length BufferLength    .... 1048576
 Integral index format  IndFormat       ....     0
 Integral value format  ValFormat       ....     0
 Integral Storage       Thresh          ....  1.000e-08 Eh

Convergence Tolerance:
 Convergence Check Mode ConvCheckMode   .... Total+1el-Energy
 Energy Change          TolE            ....  1.000e-06 Eh
 1-El. energy change                    ....  1.000e-03 Eh
 Orbital Gradient       TolG            ....  5.000e-05
 Orbital Rotation angle TolX            ....  5.000e-05
 DIIS Error             TolErr          ....  1.000e-06


Diagonalization of the overlap matrix:
Smallest eigenvalue                        ... 1.694e-01
Time for diagonalization                   ...    0.003 sec
Threshold for overlap eigenvalues          ... 1.000e-08
Number of eigenvalues below threshold      ... 0
Time for construction of square roots      ...    0.001 sec
Total time needed                          ...    0.004 sec

-------------------------------
INITIAL GUESS: EXTENDED HUECKEL
-------------------------------
EHT matrix was read from disk
EHT matrix was diagonalized
Initial density was built
                      ------------------
                      INITIAL GUESS DONE
                      ------------------

 InCore treatment chosen:
   Memory dedicated               ...    1024 MB
   Memory needed                  ...      0 MB
   Number of tiny    integrals    ...       0
   Number of small   integrals    ...       0
   Number of regular integrals    ...    7392

--------------
SCF ITERATIONS
--------------
ITER       Energy         Delta-E        Max-DP      RMS-DP      [F,P]     Damp
  0    -17.5539392601   0.000000000000 0.04202180  0.00145153  0.0875066 0.7000
  1    -17.5959177736  -0.041978513407 0.03977000  0.00136771  0.0623239 0.7000
                               ***Turning on DIIS***
  2    -17.6269864858  -0.031068712199 0.10109867  0.00351110  0.0405631 0.0000
  3    -17.7061890525  -0.079202566700 0.01596669  0.00072429  0.0199621 0.0000
  4    -17.6941369318   0.012052120631 0.01132825  0.00050097  0.0073763 0.0000
  5    -17.7108644957  -0.016727563836 0.00803162  0.00033960  0.0042504 0.0000
  6    -17.7137458817  -0.002881386074 0.00635171  0.00024228  0.0023004 0.0000
                      *** Initiating the SOSCF procedure ***
                           *** Shutting down DIIS ***
                      *** Re-Reading the Fockian *** 
                      *** Removing any level shift *** 
ITER      Energy       Delta-E        Grad      Rot      Max-DP    RMS-DP
  7    -17.70928844   0.0044574420  0.003059  0.003059  0.003789  0.000137
  8    -17.70678370   0.0025047362  0.000840  0.002345  0.001892  0.000065
  9    -17.70679939  -0.0000156905  0.000370  0.002311  0.002154  0.000069
 10    -17.70680525  -0.0000058546  0.000034  0.000075  0.000123  0.000004
                 **** Energy Check signals convergence ****
              ***Rediagonalizing the Fockian in SOSCF/NRSCF***

               *****************************************************
               *                     SUCCESS                       *
               *           SCF CONVERGED AFTER  11 CYCLES          *
               *****************************************************


----------------
TOTAL SCF ENERGY
----------------

Total Energy       :          -17.70680530 Eh            -481.82667 eV

Components:
Nuclear Repulsion  :          673.42517995 Eh           18324.83076 eV
Electronic Energy  :         -691.13198526 Eh          -18806.65743 eV

One Electron Energy:        -1291.75952456 Eh          -35150.56368 eV
Two Electron Energy:          600.62753930 Eh           16343.90625 eV


---------------
SCF CONVERGENCE
---------------

  Last Energy change         ...   -5.4575e-08  Tolerance :   1.0000e-06
  Last MAX-Density change    ...    5.6336e-05  Tolerance :   1.0000e-05
  Last RMS-Density change    ...    1.4799e-06  Tolerance :   1.0000e-06
  Last Orbital Gradient      ...    1.2048e-05  Tolerance :   5.0000e-05
  Last Orbital Rotation      ...    2.9387e-05  Tolerance :   5.0000e-05

             **** THE GBW FILE WAS UPDATED (/Users/mattyjones/GoogleDrive/Boise/Code/MorphCT/tests/output_EZ/donor_polymer/chromophores/input_orca/pair/00002-00018.gbw) ****
             **** DENSITY FILE WAS UPDATED (/Users/mattyjones/GoogleDrive/Boise/Code/MorphCT/tests/output_EZ/donor_polymer/chromophores/input_orca/pair/00002-00018.scfp.tmp) ****
             **** ENERGY FILE WAS UPDATED (/Users/mattyjones/GoogleDrive/Boise/Code/MorphCT/tests/output_EZ/donor_polymer/chromophores/input_orca/pair/00002-00018.en.tmp) ****
----------------
ORBITAL ENERGIES
----------------

  NO   OCC          E(Eh)            E(eV) 
   0   2.0000      -1.564616       -42.5754 
   1   2.0000      -1.563283       -42.5391 
   2   2.0000      -1.420698       -38.6592 
   3   2.0000      -1.407194       -38.2917 
   4   2.0000      -1.296490       -35.2793 
   5   2.0000      -1.284267       -34.9467 
   6   2.0000      -1.196161       -32.5492 
   7   2.0000      -1.164349       -31.6835 
   8   2.0000      -1.119799       -30.4713 
   9   2.0000      -1.108429       -30.1619 
  10   2.0000      -1.039188       -28.2778 
  11   2.0000      -1.033480       -28.1224 
  12   2.0000      -0.987505       -26.8714 
  13   2.0000      -0.949932       -25.8490 
  14   2.0000      -0.913440       -24.8560 
  15   2.0000      -0.910823       -24.7848 
  16   2.0000      -0.851132       -23.1605 
  17   2.0000      -0.846601       -23.0372 
  18   2.0000      -0.831206       -22.6183 
  19   2.0000      -0.818701       -22.2780 
  20   2.0000      -0.782347       -21.2888 
  21   2.0000      -0.769603       -20.9420 
  22   2.0000      -0.742042       -20.1920 
  23   2.0000      -0.728752       -19.8304 
  24   2.0000      -0.708680       -19.2842 
  25   2.0000      -0.687201       -18.6997 
  26   2.0000      -0.684523       -18.6268 
  27   2.0000      -0.677130       -18.4256 
  28   2.0000      -0.650386       -17.6979 
  29   2.0000      -0.622884       -16.9495 
  30   2.0000      -0.616095       -16.7648 
  31   2.0000      -0.608680       -16.5630 
  32   2.0000      -0.599410       -16.3108 
  33   2.0000      -0.592587       -16.1251 
  34   2.0000      -0.577078       -15.7031 
  35   2.0000      -0.576883       -15.6978 
  36   2.0000      -0.574323       -15.6281 
  37   2.0000      -0.568249       -15.4629 
  38   2.0000      -0.555155       -15.1065 
  39   2.0000      -0.552750       -15.0411 
  40   2.0000      -0.537533       -14.6270 
  41   2.0000      -0.528870       -14.3913 
  42   2.0000      -0.526929       -14.3385 
  43   2.0000      -0.516684       -14.0597 
  44   2.0000      -0.508094       -13.8259 
  45   2.0000      -0.506878       -13.7929 
  46   2.0000      -0.495633       -13.4869 
  47   2.0000      -0.490306       -13.3419 
  48   2.0000      -0.489159       -13.3107 
  49   2.0000      -0.482494       -13.1293 
  50   2.0000      -0.477787       -13.0012 
  51   2.0000      -0.475656       -12.9433 
  52   2.0000      -0.471012       -12.8169 
  53   2.0000      -0.468408       -12.7460 
  54   2.0000      -0.459654       -12.5078 
  55   2.0000      -0.447571       -12.1790 
  56   2.0000      -0.436771       -11.8851 
  57   2.0000      -0.435683       -11.8555 
  58   2.0000      -0.354551        -9.6478 
  59   2.0000      -0.351067        -9.5530 
  60   2.0000      -0.305064        -8.3012 
  61   2.0000      -0.304406        -8.2833 
  62   0.0000       0.007093         0.1930 
  63   0.0000       0.007652         0.2082 
  64   0.0000       0.066586         1.8119 
  65   0.0000       0.069164         1.8821 
  66   0.0000       0.076371         2.0782 
  67   0.0000       0.082296         2.2394 
  68   0.0000       0.087347         2.3768 
  69   0.0000       0.088960         2.4207 
  70   0.0000       0.105817         2.8794 
  71   0.0000       0.106873         2.9082 
  72   0.0000       0.107201         2.9171 
  73   0.0000       0.107642         2.9291 
  74   0.0000       0.120573         3.2809 
  75   0.0000       0.125457         3.4139 
  76   0.0000       0.141561         3.8521 
  77   0.0000       0.144287         3.9263 
  78   0.0000       0.154765         4.2114 
  79   0.0000       0.160192         4.3591 
  80   0.0000       0.165515         4.5039 
  81   0.0000       0.166248         4.5238 
  82   0.0000       0.172663         4.6984 
  83   0.0000       0.173133         4.7112 
  84   0.0000       0.201380         5.4798 
  85   0.0000       0.205947         5.6041 
  86   0.0000       0.230754         6.2791 
  87   0.0000       0.232824         6.3355 
  88   0.0000       0.235663         6.4127 
  89   0.0000       0.236571         6.4374 
  90   0.0000       0.236679         6.4404 
  91   0.0000       0.239014         6.5039 
  92   0.0000       0.239887         6.5277 
  93   0.0000       0.239989         6.5304 
  94   0.0000       0.242298         6.5933 
  95   0.0000       0.243319         6.6210 
  96   0.0000       0.243943         6.6380 
  97   0.0000       0.244425         6.6511 
  98   0.0000       0.244489         6.6529 
  99   0.0000       0.246358         6.7037 
 100   0.0000       0.247132         6.7248 
 101   0.0000       0.259803         7.0696 
 102   0.0000       0.260075         7.0770 
 103   0.0000       0.266488         7.2515 
 104   0.0000       0.267031         7.2663 
 105   0.0000       0.270254         7.3540 
 106   0.0000       0.283443         7.7129 
 107   0.0000       0.283703         7.7200 
 108   0.0000       0.299293         8.1442 
 109   0.0000       0.309920         8.4333 
 110   0.0000       0.310412         8.4467 
 111   0.0000       0.312223         8.4960 
 112   0.0000       0.337648         9.1879 
 113   0.0000       0.341834         9.3018 
 114   0.0000       0.346957         9.4412 
 115   0.0000       0.352654         9.5962 
 116   0.0000       0.417071        11.3491 
 117   0.0000       0.420366        11.4387 
 118   0.0000       0.425162        11.5693 
 119   0.0000       0.427586        11.6352 
-------
TIMINGS
-------

Total SCF time: 0 days 0 hours 0 min 0 sec 

Total time                  ....       0.126 sec
Sum of individual times     ....       0.102 sec  ( 80.4%)

Fock matrix formation       ....       0.047 sec  ( 37.2%)
Diagonalization             ....       0.024 sec  ( 19.3%)
Density matrix formation    ....       0.005 sec  (  4.0%)
Population analysis         ....       0.000 sec  (  0.0%)
Initial guess               ....       0.003 sec  (  2.5%)
Orbital Transformation      ....       0.000 sec  (  0.0%)
Orbital Orthonormalization  ....       0.000 sec  (  0.0%)
DIIS solution               ....       0.016 sec  ( 12.5%)
SOSCF solution              ....       0.006 sec  (  5.0%)

-------------------------   --------------------
FINAL SINGLE POINT ENERGY       -17.706805303154
-------------------------   --------------------


                            ***************************************
                            *     ORCA property calculations      *
                            ***************************************

                                    ---------------------
                                    Active property flags
                                    ---------------------
   (+) Dipole Moment


------------------------------------------------------------------------------
                       ORCA ELECTRIC PROPERTIES CALCULATION
------------------------------------------------------------------------------

Dipole Moment Calculation                       ... on
Quadrupole Moment Calculation                   ... off
Polarizability Calculation                      ... off
GBWName                                         ... /Users/mattyjones/GoogleDrive/Boise/Code/MorphCT/tests/output_EZ/donor_polymer/chromophores/input_orca/pair/00002-00018.gbw
Electron density file                           ... /Users/mattyjones/GoogleDrive/Boise/Code/MorphCT/tests/output_EZ/donor_polymer/chromophores/input_orca/pair/00002-00018.scfp.tmp

-------------
DIPOLE MOMENT
-------------
                                X             Y             Z
Electronic contribution:     25.83207      34.34078     -63.27600
Nuclear contribution   :    -14.51084     -18.61718      33.79607
                        -----------------------------------------
Total Dipole Moment    :     11.32123      15.72360     -29.47993
                        -----------------------------------------
Magnitude (a.u.)       :     35.27702
Magnitude (Debye)      :     89.66706


Timings for individual modules:

Sum of individual times         ...        0.226 sec (=   0.004 min)
STO integral calculation        ...        0.051 sec (=   0.001 min)  22.7 %
SCF iterations                  ...        0.175 sec (=   0.003 min)  77.3 %
                             ****ORCA TERMINATED NORMALLY****
TOTAL RUN TIME: 0 days 0 hours 0 minutes 0 seconds 537 msec

