
                                 *****************
                                 * O   R   C   A *
                                 *****************

           --- An Ab Initio, DFT and Semiempirical electronic structure package ---

                  #######################################################
                  #                        -***-                        #
                  #  Department of molecular theory and spectroscopy    #
                  #              Directorship: Frank Neese              #
                  # Max Planck Institute for Chemical Energy Conversion #
                  #                  D-45470 Muelheim/Ruhr              #
                  #                       Germany                       #
                  #                                                     #
                  #                  All rights reserved                #
                  #                        -***-                        #
                  #######################################################


                         Program Version 3.0.3 - RELEASE   -


 With contributions from (in alphabetic order):
   Ute Becker             : Parallelization
   Dmytro Bykov           : SCF Hessian
   Dmitry Ganyushin       : Spin-Orbit,Spin-Spin,Magnetic field MRCI
   Andreas Hansen         : Spin unrestricted coupled pair/coupled cluster methods
   Dimitrios Liakos       : Extrapolation schemes; parallel MDCI
   Robert Izsak           : Overlap fitted RIJCOSX, COSX-SCS-MP3
   Christian Kollmar      : KDIIS, OOCD, Brueckner-CCSD(T), CCSD density
   Simone Kossmann        : Meta GGA functionals, TD-DFT gradient, OOMP2, MP2 Hessian
   Taras Petrenko         : DFT Hessian,TD-DFT gradient, ASA and ECA modules, normal mode analysis, Resonance Raman, ABS, FL, XAS/XES, NRVS
   Christoph Reimann      : Effective Core Potentials
   Michael Roemelt        : Restricted open shell CIS
   Christoph Riplinger    : Improved optimizer, TS searches, QM/MM, DLPNO-CCSD
   Barbara Sandhoefer     : DKH picture change effects
   Igor Schapiro          : Molecular dynamics
   Kantharuban Sivalingam : CASSCF convergence, NEVPT2
   Boris Wezisla          : Elementary symmetry handling
   Frank Wennmohs         : Technical directorship


 We gratefully acknowledge several colleagues who have allowed us to
 interface, adapt or use parts of their codes:
   Stefan Grimme, W. Hujo, H. Kruse, T. Risthaus : VdW corrections, initial TS optimization,
                                                   DFT functionals, gCP
   Ed Valeev                                     : LibInt (2-el integral package), F12 methods
   Garnet Chan, S. Sharma, R. Olivares           : DMRG
   Ulf Ekstrom                                   : XCFun DFT Library
   Mihaly Kallay                                 : mrcc  (arbitrary order and MRCC methods)
   Andreas Klamt, Michael Diedenhofen            : otool_cosmo (COSMO solvation model)
   Frank Weinhold                                : gennbo (NPA and NBO analysis)
   Christopher J. Cramer and Donald G. Truhlar   : smd solvation model


 Your calculation uses the libint2 library for the computation of 2-el integrals
 For citations please refer to: http://libint.valeyev.net

 This ORCA versions uses:
   CBLAS   interface :  Fast vector & matrix operations
   LAPACKE interface :  Fast linear algebra routines
   SCALAPACK package :  Parallel linear algebra routines


leaving
================================================================================
                                        WARNINGS
                       Please study these warnings very carefully!
================================================================================
Now building the actual basis set

WARNING: Direct SCF is incompatible with Method<>HF and Method<>DFT
  ===> : conventional SCF is chosen

WARNING: The NDO methods need Guess=HUECKEL or Guess=HCORE or Guess=MOREAD
  ===> : Guess is set to Hueckel

WARNING: The NDO methods need %rel::SOCType==1
  ===> : %rel::SOCType is set to 1

WARNING: The NDO methods cannot have frozencore=1
  ===> : %method FrozenCore=0 end


INFO   : the flag for use of LIBINT has been found!

================================================================================
                                       INPUT FILE
================================================================================
NAME = /Users/mattyjones/GoogleDrive/Boise/Code/MorphCT/tests/output_EZ/donor_polymer/chromophores/input_orca/pair/00004-00029.inp
|  1> # ================================================================
|  2> # Orca input file made by Matty Jones
|  3> # ================================================================
|  4> ! ZINDO/S 
|  5> ! NOPOP
|  6> ! NOMOPRINT
|  7> * xyz 0   1
|  8>  C  -12.91866  -4.57319  -12.53647
|  9>  C  -13.51642  -5.78082  -12.90008
| 10>  C  -13.01466  -6.91714  -12.19206
| 11>  C  -12.01565  -6.60520  -11.26469
| 12>  S  -11.80866  -4.96298  -11.36811
| 13>  H  -14.34502  -5.88731  -13.67820
| 14>  C  -13.61535  -8.39701  -12.47932
| 15>  C  -15.30463  -8.69054  -12.29571
| 16>  C  -16.72851  -8.57892  -13.25489
| 17>  H  -17.42062  -9.40269  -12.80896
| 18>  H  -17.17545  -7.55006  -12.94521
| 19>  H  -15.32112  -9.80703  -11.97642
| 20>  H  -15.57181  -8.04470  -11.36947
| 21>  H  -13.07888  -9.21294  -11.85448
| 22>  H  -13.41261  -8.64934  -13.60591
| 23>  C  -16.88449  -8.67317  -14.87571
| 24>  C  -17.37965  -10.17502  -15.49908
| 25>  C  -19.04982  -10.39394  -15.63308
| 26>  H  -19.27366  -11.52016  -15.78024
| 27>  H  -19.44325  -9.79882  -16.54351
| 28>  H  -19.56588  -10.01834  -14.66832
| 29>  H  -16.93124  -10.27828  -16.55553
| 30>  H  -16.96309  -11.00365  -14.81766
| 31>  H  -17.66958  -7.89581  -15.22294
| 32>  H  -15.87028  -8.41816  -15.36825
| 33>  C  19.73831  8.30203  12.27959
| 34>  C  18.40679  8.57583  12.59585
| 35>  C  18.18586  8.88556  13.97409
| 36>  C  19.34877  8.85617  14.75003
| 37>  S  20.57195  8.45418  13.70472
| 38>  H  17.56225  8.58935  11.82734
| 39>  C  16.81086  9.26427  14.77732
| 40>  C  15.26544  8.53093  15.11449
| 41>  C  13.66135  8.34477  14.52663
| 42>  H  12.97151  8.55214  15.43887
| 43>  H  13.50875  9.20397  13.77049
| 44>  H  15.59247  7.42583  15.25550
| 45>  H  15.05166  8.98359  16.16773
| 46>  H  16.43897  10.25888  14.27168
| 47>  H  17.14374  9.56086  15.86206
| 48>  C  13.20251  6.92449  13.87756
| 49>  C  12.87879  6.83512  12.22672
| 50>  C  12.80911  8.31143  11.43195
| 51>  H  13.85211  8.81060  11.45025
| 52>  H  12.03508  8.99430  11.95684
| 53>  H  12.48139  8.13560  10.33547
| 54>  H  13.70703  6.20148  11.73431
| 55>  H  11.86232  6.30613  12.08940
| 56>  H  14.02389  6.13498  14.09567
| 57>  H  12.23213  6.58011  14.41616
| 58>  H  -13.12978  -3.60994  -12.92527
| 59>  H  -11.49886  -7.27758  -10.62875
| 60>  H  20.13332  8.04996  11.32879
| 61>  H  19.43125  9.05020  15.78885
| 62> *
| 63> 
| 64>                          ****END OF INPUT****
================================================================================

                       ****************************
                       * Single Point Calculation *
                       ****************************

---------------------------------
CARTESIAN COORDINATES (ANGSTROEM)
---------------------------------
  C    -12.918660   -4.573190  -12.536470
  C    -13.516420   -5.780820  -12.900080
  C    -13.014660   -6.917140  -12.192060
  C    -12.015650   -6.605200  -11.264690
  S    -11.808660   -4.962980  -11.368110
  H    -14.345020   -5.887310  -13.678200
  C    -13.615350   -8.397010  -12.479320
  C    -15.304630   -8.690540  -12.295710
  C    -16.728510   -8.578920  -13.254890
  H    -17.420620   -9.402690  -12.808960
  H    -17.175450   -7.550060  -12.945210
  H    -15.321120   -9.807030  -11.976420
  H    -15.571810   -8.044700  -11.369470
  H    -13.078880   -9.212940  -11.854480
  H    -13.412610   -8.649340  -13.605910
  C    -16.884490   -8.673170  -14.875710
  C    -17.379650  -10.175020  -15.499080
  C    -19.049820  -10.393940  -15.633080
  H    -19.273660  -11.520160  -15.780240
  H    -19.443250   -9.798820  -16.543510
  H    -19.565880  -10.018340  -14.668320
  H    -16.931240  -10.278280  -16.555530
  H    -16.963090  -11.003650  -14.817660
  H    -17.669580   -7.895810  -15.222940
  H    -15.870280   -8.418160  -15.368250
  C     19.738310    8.302030   12.279590
  C     18.406790    8.575830   12.595850
  C     18.185860    8.885560   13.974090
  C     19.348770    8.856170   14.750030
  S     20.571950    8.454180   13.704720
  H     17.562250    8.589350   11.827340
  C     16.810860    9.264270   14.777320
  C     15.265440    8.530930   15.114490
  C     13.661350    8.344770   14.526630
  H     12.971510    8.552140   15.438870
  H     13.508750    9.203970   13.770490
  H     15.592470    7.425830   15.255500
  H     15.051660    8.983590   16.167730
  H     16.438970   10.258880   14.271680
  H     17.143740    9.560860   15.862060
  C     13.202510    6.924490   13.877560
  C     12.878790    6.835120   12.226720
  C     12.809110    8.311430   11.431950
  H     13.852110    8.810600   11.450250
  H     12.035080    8.994300   11.956840
  H     12.481390    8.135600   10.335470
  H     13.707030    6.201480   11.734310
  H     11.862320    6.306130   12.089400
  H     14.023890    6.134980   14.095670
  H     12.232130    6.580110   14.416160
  H    -13.129780   -3.609940  -12.925270
  H    -11.498860   -7.277580  -10.628750
  H     20.133320    8.049960   11.328790
  H     19.431250    9.050200   15.788850

----------------------------
CARTESIAN COORDINATES (A.U.)
----------------------------
  NO LB      ZA    FRAG    MASS        X           Y           Z
   0 C     4.0000    0    12.011        -24.412729417243117         -8.642076658387330        -23.690494986119752
   1 C     4.0000    0    12.011        -25.542332111055885        -10.924166629494650        -24.377618305674861
   2 C     4.0000    0    12.011        -24.594143126099556        -13.071500229992047        -23.039654408335934
   3 C     4.0000    0    12.011        -22.706287821050889        -12.482019059776652        -21.287179083521384
   4 S     6.0000    0    32.060        -22.315133408590526         -9.378673008128493        -21.482614560291520
   5 H     1.0000    0     1.008        -27.108159185623034        -11.125403565495924        -25.848052005001666
   6 C     4.0000    0    12.011        -25.729282717484711        -15.868049243798088        -23.582497137566154
   7 C     4.0000    0    12.011        -28.921559280995204        -16.422740555887994        -23.235524522116872
   8 C     4.0000    0    12.011        -31.612302528562999        -16.211809324819704        -25.048112035251460
   9 H     1.0000    0     1.008        -32.920200883111235        -17.768509022160014        -24.205426460351958
  10 H     1.0000    0     1.008        -32.456896726857764        -14.267545694673485        -24.462901646098725
  11 H     1.0000    0     1.008        -28.952720864943569        -18.532600887149730        -22.632153864817155
  12 H     1.0000    0     1.008        -29.426456309456285        -15.202279829556295        -21.485184587833654
  13 H     1.0000    0     1.008        -24.715501338419980        -17.409933488248456        -22.401720660046802
  14 H     1.0000    0     1.008        -25.346159641093521        -16.344883839170439        -25.711443702780496
  15 C     4.0000    0    12.011        -31.907062010932034        -16.389916012941782        -28.111017947633702
  16 C     4.0000    0    12.011        -32.842778803404485        -19.228001207171413        -29.289016527736191
  17 C     4.0000    0    12.011        -35.998942700495739        -19.641700052409455        -29.542239829681641
  18 H     1.0000    0     1.008        -36.421938998312669        -21.769947418954249        -29.820331927549489
  19 H     1.0000    0     1.008        -36.742417653364377        -18.517086235590238        -31.262703193787569
  20 H     1.0000    0     1.008        -36.974154769167143        -18.931918916508632        -27.719107644719774
  21 H     1.0000    0     1.008        -31.995406707692851        -19.423134327760124        -31.285417701917300
  22 H     1.0000    0     1.008        -32.055594485058243        -20.793884973522580        -28.001319345559573
  23 H     1.0000    0     1.008        -33.390667101412269        -14.920918505476758        -28.767187553115178
  24 H     1.0000    0     1.008        -29.990482868647760        -15.908016951530524        -29.041783657635275
  25 C     4.0000    0    12.011         37.300000246439176         15.688563055598250         23.205062136838063
  26 C     4.0000    0    12.011         34.783792104600359         16.205970071065888         23.802706923951998
  27 C     4.0000    0    12.011         34.366294909833137         16.791274946525316         26.407203070767626
  28 C     4.0000    0    12.011         36.563876328231494         16.735735895449373         27.873517167122483
  29 S     6.0000    0    32.060         38.875351540721297         15.976084886874366         25.898167542073256
  30 H     1.0000    0     1.008         33.187842795458501         16.231519168396503         22.350433492772176
  31 C     4.0000    0    12.011         31.767921475691416         17.506933130702635         27.925087793317189
  32 C     4.0000    0    12.011         28.847500913806833         16.121121367652822         28.562246753891419
  33 C     4.0000    0    12.011         25.816210119645092         15.769329950562044         27.451352348804473
  34 H     1.0000    0     1.008         24.512601443420856         16.161202458953291         29.175236117212794
  35 H     1.0000    0     1.008         25.527837911608707         17.392982644827182         26.022454829901257
  36 H     1.0000    0     1.008         29.465498051383101         14.032785017056449         28.828717036035655
  37 H     1.0000    0     1.008         28.443515260897147         16.976524799433616         30.552581907182635
  38 H     1.0000    0     1.008         31.065151223747442         19.386473640762048         26.969566670961250
  39 H     1.0000    0     1.008         32.396973511151124         18.067407004762337         29.974949319826930
  40 C     4.0000    0    12.011         24.949128180356663         13.085389717076367         26.224787807060206
  41 C     4.0000    0    12.011         24.337386036283679         12.916504892487826         23.105152316137648
  42 C     4.0000    0    12.011         24.205709919272046         15.706326481257108         21.603254676681054
  43 H     1.0000    0     1.008         26.176694276951910         16.649621075526582         21.637836664931811
  44 H     1.0000    0     1.008         22.743005199832979         16.996763766327916         22.595153027114979
  45 H     1.0000    0     1.008         23.586408870663369         15.374055935129736         19.531207765359081
  46 H     1.0000    0     1.008         25.902532809442615         11.719098824989963         22.174632270533483
  47 H     1.0000    0     1.008         22.416536112936743         11.916858664904822         22.845655123427580
  48 H     1.0000    0     1.008         26.501311432236900         11.593432037084201         26.636955974129769
  49 H     1.0000    0     1.008         23.115375734522161         12.434605831076569         27.242594302790192
  50 H     1.0000    0     1.008        -24.811688398636573         -6.821797959887683        -24.425220506988335
  51 H     1.0000    0     1.008        -21.729696252301725        -13.752633117702624        -20.085426645915504
  52 H     1.0000    0     1.008         38.046460966599419         15.212219789020720         21.408310528705737
  53 H     1.0000    0     1.008         36.719740939757315         17.102399457214112         29.836602469562553

--------------------------------
INTERNAL COORDINATES (ANGSTROEM)
--------------------------------
 C      0   0   0   0.000000     0.000     0.000
 C      1   0   0   1.395672     0.000     0.000
 C      2   1   0   1.429783   114.102     0.000
 C      3   2   1   1.398336   113.693     0.000
 S      1   2   3   1.658041   105.480     0.000
 H      2   1   3   1.141661   124.689   179.157
 C      3   2   1   1.622764   120.478   179.184
 C      7   3   2   1.724395   119.935   303.193
 C      8   7   3   1.720442   137.762    87.681
 H      9   8   7   1.164675   103.442   150.890
 H      9   8   7   1.163705   103.112   262.441
 H      8   7   3   1.161365   101.937   210.560
 H      8   7   3   1.160351   102.464   322.504
 H      7   3   2   1.159296   112.033   177.969
 H      7   3   2   1.172168   107.603    61.056
 C      9   8   7   1.631034   129.008    26.295
 C     16   9   8   1.699802   116.318    99.018
 C     17  16   9   1.689778   115.561    89.257
 H     18  17  16   1.157641   109.101   195.535
 H     18  17  16   1.156649   109.388    75.707
 H     18  17  16   1.156787   109.435   315.458
 H     17  16   9   1.152311   107.580   209.306
 H     17  16   9   1.150862   108.275   327.824
 H     16   9   8   1.158112   108.904   219.430
 H     16   9   8   1.155962   109.073   337.797
 C      5   1   2  41.597903   146.442   171.180
 C     26   5   1   1.395683    57.850    79.948
 C     27  26   5   1.429786   114.101   158.119
 C     28  27  26   1.398323   113.693     0.000
 S     26   5   1   1.658041   154.052   135.117
 H     27  26   5   1.141945   123.737   336.186
 C     28  27  26   1.636834   130.765   179.958
 C     32  28  27   1.743501   137.918    60.190
 C     33  32  28   1.718528   143.782   271.100
 H     34  33  32   1.162353   105.437   227.052
 H     34  33  32   1.154668   105.472   340.776
 H     33  32  28   1.161068   100.030    37.084
 H     33  32  28   1.166155   100.014   147.715
 H     32  28  27   1.176105   104.496   298.138
 H     32  28  27   1.172790   105.900   186.581
 C     34  33  32   1.627581   119.610   105.953
 C     41  34  33   1.684653   119.423   248.496
 C     42  41  34   1.678096   115.177   349.924
 H     43  42  41   1.156440   109.560    65.463
 H     43  42  41   1.157991   109.382   304.880
 H     43  42  41   1.157836   109.067   185.454
 H     42  41  34   1.153234   108.032   110.881
 H     42  41  34   1.154079   108.069   228.990
 H     41  34  33   1.159984   108.622    10.798
 H     41  34  33   1.162035   108.011   127.231
 H      1   2   3   1.059994   127.260   180.000
 H      4   3   2   1.059994   127.207   180.000
 H     26   5   1   1.059997    72.354   278.084
 H     29  28  27   1.059999   127.206   180.001

---------------------------
INTERNAL COORDINATES (A.U.)
---------------------------
 C      0   0   0   0.000000     0.000     0.000
 C      1   0   0   2.637437     0.000     0.000
 C      2   1   0   2.701898   114.102     0.000
 C      3   2   1   2.642471   113.693     0.000
 S      1   2   3   3.133244   105.480     0.000
 H      2   1   3   2.157426   124.689   179.157
 C      3   2   1   3.066579   120.478   179.184
 C      7   3   2   3.258635   119.935   303.193
 C      8   7   3   3.251164   137.762    87.681
 H      9   8   7   2.200916   103.442   150.890
 H      9   8   7   2.199084   103.112   262.441
 H      8   7   3   2.194661   101.937   210.560
 H      8   7   3   2.192746   102.464   322.504
 H      7   3   2   2.190752   112.033   177.969
 H      7   3   2   2.215077   107.603    61.056
 C      9   8   7   3.082207   129.008    26.295
 C     16   9   8   3.212160   116.318    99.018
 C     17  16   9   3.193218   115.561    89.257
 H     18  17  16   2.187624   109.101   195.535
 H     18  17  16   2.185751   109.388    75.707
 H     18  17  16   2.186010   109.435   315.458
 H     17  16   9   2.177552   107.580   209.306
 H     17  16   9   2.174814   108.275   327.824
 H     16   9   8   2.188515   108.904   219.430
 H     16   9   8   2.184451   109.073   337.797
 C      5   1   2  78.608644   146.442   171.180
 C     26   5   1   2.637460    57.850    79.948
 C     27  26   5   2.701904   114.101   158.119
 C     28  27  26   2.642447   113.693     0.000
 S     26   5   1   3.133244   154.052   135.117
 H     27  26   5   2.157963   123.737   336.186
 C     28  27  26   3.093167   130.765   179.958
 C     32  28  27   3.294739   137.918    60.190
 C     33  32  28   3.247548   143.782   271.100
 H     34  33  32   2.196528   105.437   227.052
 H     34  33  32   2.182007   105.472   340.776
 H     33  32  28   2.194100   100.030    37.084
 H     33  32  28   2.203714   100.014   147.715
 H     32  28  27   2.222516   104.496   298.138
 H     32  28  27   2.216251   105.900   186.581
 C     34  33  32   3.075683   119.610   105.953
 C     41  34  33   3.183532   119.423   248.496
 C     42  41  34   3.171142   115.177   349.924
 H     43  42  41   2.185356   109.560    65.463
 H     43  42  41   2.188286   109.382   304.880
 H     43  42  41   2.187994   109.067   185.454
 H     42  41  34   2.179297   108.032   110.881
 H     42  41  34   2.180893   108.069   228.990
 H     41  34  33   2.192052   108.622    10.798
 H     41  34  33   2.195928   108.011   127.231
 H      1   2   3   2.003099   127.260   180.000
 H      4   3   2   2.003098   127.207   180.000
 H     26   5   1   2.003103    72.354   278.084
 H     29  28  27   2.003108   127.206   180.001

----------------------------
SLATER BASIS SET DIM= 120
----------------------------
  0 C     2 shells
 l=0 nsto= 1
    2       1.625000000000        1.000000000000
 l=1 nsto= 1
    2       1.625000000000        1.000000000000
  1 C     2 shells
 l=0 nsto= 1
    2       1.625000000000        1.000000000000
 l=1 nsto= 1
    2       1.625000000000        1.000000000000
  2 C     2 shells
 l=0 nsto= 1
    2       1.625000000000        1.000000000000
 l=1 nsto= 1
    2       1.625000000000        1.000000000000
  3 C     2 shells
 l=0 nsto= 1
    2       1.625000000000        1.000000000000
 l=1 nsto= 1
    2       1.625000000000        1.000000000000
  4 S     2 shells
 l=0 nsto= 1
    3       1.925000000000        1.000000000000
 l=1 nsto= 1
    3       1.925000000000        1.000000000000
  5 H     1 shells
 l=0 nsto= 1
    1       1.200000000000        1.000000000000
  6 C     2 shells
 l=0 nsto= 1
    2       1.625000000000        1.000000000000
 l=1 nsto= 1
    2       1.625000000000        1.000000000000
  7 C     2 shells
 l=0 nsto= 1
    2       1.625000000000        1.000000000000
 l=1 nsto= 1
    2       1.625000000000        1.000000000000
  8 C     2 shells
 l=0 nsto= 1
    2       1.625000000000        1.000000000000
 l=1 nsto= 1
    2       1.625000000000        1.000000000000
  9 H     1 shells
 l=0 nsto= 1
    1       1.200000000000        1.000000000000
 10 H     1 shells
 l=0 nsto= 1
    1       1.200000000000        1.000000000000
 11 H     1 shells
 l=0 nsto= 1
    1       1.200000000000        1.000000000000
 12 H     1 shells
 l=0 nsto= 1
    1       1.200000000000        1.000000000000
 13 H     1 shells
 l=0 nsto= 1
    1       1.200000000000        1.000000000000
 14 H     1 shells
 l=0 nsto= 1
    1       1.200000000000        1.000000000000
 15 C     2 shells
 l=0 nsto= 1
    2       1.625000000000        1.000000000000
 l=1 nsto= 1
    2       1.625000000000        1.000000000000
 16 C     2 shells
 l=0 nsto= 1
    2       1.625000000000        1.000000000000
 l=1 nsto= 1
    2       1.625000000000        1.000000000000
 17 C     2 shells
 l=0 nsto= 1
    2       1.625000000000        1.000000000000
 l=1 nsto= 1
    2       1.625000000000        1.000000000000
 18 H     1 shells
 l=0 nsto= 1
    1       1.200000000000        1.000000000000
 19 H     1 shells
 l=0 nsto= 1
    1       1.200000000000        1.000000000000
 20 H     1 shells
 l=0 nsto= 1
    1       1.200000000000        1.000000000000
 21 H     1 shells
 l=0 nsto= 1
    1       1.200000000000        1.000000000000
 22 H     1 shells
 l=0 nsto= 1
    1       1.200000000000        1.000000000000
 23 H     1 shells
 l=0 nsto= 1
    1       1.200000000000        1.000000000000
 24 H     1 shells
 l=0 nsto= 1
    1       1.200000000000        1.000000000000
 25 C     2 shells
 l=0 nsto= 1
    2       1.625000000000        1.000000000000
 l=1 nsto= 1
    2       1.625000000000        1.000000000000
 26 C     2 shells
 l=0 nsto= 1
    2       1.625000000000        1.000000000000
 l=1 nsto= 1
    2       1.625000000000        1.000000000000
 27 C     2 shells
 l=0 nsto= 1
    2       1.625000000000        1.000000000000
 l=1 nsto= 1
    2       1.625000000000        1.000000000000
 28 C     2 shells
 l=0 nsto= 1
    2       1.625000000000        1.000000000000
 l=1 nsto= 1
    2       1.625000000000        1.000000000000
 29 S     2 shells
 l=0 nsto= 1
    3       1.925000000000        1.000000000000
 l=1 nsto= 1
    3       1.925000000000        1.000000000000
 30 H     1 shells
 l=0 nsto= 1
    1       1.200000000000        1.000000000000
 31 C     2 shells
 l=0 nsto= 1
    2       1.625000000000        1.000000000000
 l=1 nsto= 1
    2       1.625000000000        1.000000000000
 32 C     2 shells
 l=0 nsto= 1
    2       1.625000000000        1.000000000000
 l=1 nsto= 1
    2       1.625000000000        1.000000000000
 33 C     2 shells
 l=0 nsto= 1
    2       1.625000000000        1.000000000000
 l=1 nsto= 1
    2       1.625000000000        1.000000000000
 34 H     1 shells
 l=0 nsto= 1
    1       1.200000000000        1.000000000000
 35 H     1 shells
 l=0 nsto= 1
    1       1.200000000000        1.000000000000
 36 H     1 shells
 l=0 nsto= 1
    1       1.200000000000        1.000000000000
 37 H     1 shells
 l=0 nsto= 1
    1       1.200000000000        1.000000000000
 38 H     1 shells
 l=0 nsto= 1
    1       1.200000000000        1.000000000000
 39 H     1 shells
 l=0 nsto= 1
    1       1.200000000000        1.000000000000
 40 C     2 shells
 l=0 nsto= 1
    2       1.625000000000        1.000000000000
 l=1 nsto= 1
    2       1.625000000000        1.000000000000
 41 C     2 shells
 l=0 nsto= 1
    2       1.625000000000        1.000000000000
 l=1 nsto= 1
    2       1.625000000000        1.000000000000
 42 C     2 shells
 l=0 nsto= 1
    2       1.625000000000        1.000000000000
 l=1 nsto= 1
    2       1.625000000000        1.000000000000
 43 H     1 shells
 l=0 nsto= 1
    1       1.200000000000        1.000000000000
 44 H     1 shells
 l=0 nsto= 1
    1       1.200000000000        1.000000000000
 45 H     1 shells
 l=0 nsto= 1
    1       1.200000000000        1.000000000000
 46 H     1 shells
 l=0 nsto= 1
    1       1.200000000000        1.000000000000
 47 H     1 shells
 l=0 nsto= 1
    1       1.200000000000        1.000000000000
 48 H     1 shells
 l=0 nsto= 1
    1       1.200000000000        1.000000000000
 49 H     1 shells
 l=0 nsto= 1
    1       1.200000000000        1.000000000000
 50 H     1 shells
 l=0 nsto= 1
    1       1.200000000000        1.000000000000
 51 H     1 shells
 l=0 nsto= 1
    1       1.200000000000        1.000000000000
 52 H     1 shells
 l=0 nsto= 1
    1       1.200000000000        1.000000000000
 53 H     1 shells
 l=0 nsto= 1
    1       1.200000000000        1.000000000000
------------------------------------------------------------------------------
                           ORCA NDO INTEGRAL CALCULATION
------------------------------------------------------------------------------

--------------
NDO PARAMETERS
--------------

Gamma integral treatment              ... Mataga-Nishimoto
Nuclear repulsuion treatment          ... Direct (ZA*ZB/RAB)
Interaction factors:
s-s (sigma) =    1.0000
s-p (sigma) =    1.0000
s-d (sigma) =    1.0000
p-p (sigma) =    1.2670  p-p(pi) =    0.5850
p-d (sigma) =    1.0000  p-d(pi) =    1.0000
d-d (sigma) =    1.0000  d-d(pi) =    1.0000 d-d (delta) =    1.0000

fGamma parameter for Mataga-Nishimoto gamma integrals:    1.2000

--------------------------
Parameters for Element H :
--------------------------
 One-electron parameters (in eV)
  U(s)  =   -13.060000 Beta(s) =    12.000000 Neff(s) =     1.000000
 One-center electron repulsion parameters (in eV)
  G(s,s)=    12.850000
--------------------------
Parameters for Element C :
--------------------------
 One-electron parameters (in eV)
  U(s)  =   -50.870766 Beta(s) =    17.000000 Neff(s) =     2.000000
  U(p)  =   -41.599980 Beta(p) =    17.000000 Neff(p) =     2.000000 
 One-center electron repulsion parameters (in eV)
  G(s,s)=    11.110000
  G(s,p)=    11.110000 G(p,p)  =    11.110000
 Slater-Condon parameters (in eV)
 F2(p,p)=     4.5098 G1(s,p)=    6.8977
--------------------------
Parameters for Element S :
--------------------------
 One-electron parameters (in eV)
  U(s)  =   -69.509597 Beta(s) =    15.000000 Neff(s) =     2.000000
  U(p)  =   -60.725746 Beta(p) =    15.000000 Neff(p) =     4.000000 
 One-center electron repulsion parameters (in eV)
  G(s,s)=    10.090000
  G(s,p)=    10.090000 G(p,p)  =    10.090000
 Slater-Condon parameters (in eV)
 F2(p,p)=     4.5377 G1(s,p)=    3.0756

 Number of atoms                    ....   54
 Number of basis functions          ....  120

 Overlap integrals                  .... done
 One electron matrix                .... done
 Nuclear repulsion                  .... done
 Integral list                      .... done
 Electron-electron repulsion        .... done
-------------------------------------------------------------------------------
                                 ORCA SCF
-------------------------------------------------------------------------------

------------
SCF SETTINGS
------------
Hamiltonian:
 ZDO-Hamiltonian        Method          .... INDO


General Settings:
 Integral files         IntName         .... /Users/mattyjones/GoogleDrive/Boise/Code/MorphCT/tests/output_EZ/donor_polymer/chromophores/input_orca/pair/00004-00029
 Hartree-Fock type      HFTyp           .... RHF
 Total Charge           Charge          ....    0
 Multiplicity           Mult            ....    1
 Number of Electrons    NEL             ....  124
 Basis Dimension        Dim             ....  120
 Nuclear Repulsion      ENuc            ....    630.5579475045 Eh

Convergence Acceleration:
 DIIS                   CNVDIIS         .... on
   Start iteration      DIISMaxIt       ....    12
   Startup error        DIISStart       ....  0.200000
   # of expansion vecs  DIISMaxEq       ....     5
   Bias factor          DIISBfac        ....   1.050
   Max. coefficient     DIISMaxC        ....  10.000
 Newton-Raphson         CNVNR           .... off
 SOSCF                  CNVSOSCF        .... on
   Start iteration      SOSCFMaxIt      ....   150
   Startup grad/error   SOSCFStart      ....  0.003300
 Level Shifting         CNVShift        .... on
   Level shift para.    LevelShift      ....    0.2500
   Turn off err/grad.   ShiftErr        ....    0.0010
 Zerner damping         CNVZerner       .... off
 Static damping         CNVDamp         .... on
   Fraction old density DampFac         ....    0.7000
   Max. Damping (<1)    DampMax         ....    0.9800
   Min. Damping (>=0)   DampMin         ....    0.0000
   Turn off err/grad.   DampErr         ....    0.1000
 Fernandez-Rico         CNVRico         .... off

SCF Procedure:
 Maximum # iterations   MaxIter         ....   125
 SCF integral mode      SCFMode         .... Conventional
 Integral Buffer length BufferLength    .... 1048576
 Integral index format  IndFormat       ....     0
 Integral value format  ValFormat       ....     0
 Integral Storage       Thresh          ....  1.000e-08 Eh

Convergence Tolerance:
 Convergence Check Mode ConvCheckMode   .... Total+1el-Energy
 Energy Change          TolE            ....  1.000e-06 Eh
 1-El. energy change                    ....  1.000e-03 Eh
 Orbital Gradient       TolG            ....  5.000e-05
 Orbital Rotation angle TolX            ....  5.000e-05
 DIIS Error             TolErr          ....  1.000e-06


Diagonalization of the overlap matrix:
Smallest eigenvalue                        ... 1.698e-01
Time for diagonalization                   ...    0.003 sec
Threshold for overlap eigenvalues          ... 1.000e-08
Number of eigenvalues below threshold      ... 0
Time for construction of square roots      ...    0.001 sec
Total time needed                          ...    0.004 sec

-------------------------------
INITIAL GUESS: EXTENDED HUECKEL
-------------------------------
EHT matrix was read from disk
EHT matrix was diagonalized
Initial density was built
                      ------------------
                      INITIAL GUESS DONE
                      ------------------

 InCore treatment chosen:
   Memory dedicated               ...    1024 MB
   Memory needed                  ...      0 MB
   Number of tiny    integrals    ...       0
   Number of small   integrals    ...       0
   Number of regular integrals    ...    7392

--------------
SCF ITERATIONS
--------------
ITER       Energy         Delta-E        Max-DP      RMS-DP      [F,P]     Damp
  0    -22.8150728004   0.000000000000 0.04478501  0.00144627  0.1149802 0.7000
  1    -22.8568387835  -0.041765983151 0.04415845  0.00136291  0.0784651 0.7000
                               ***Turning on DIIS***
  2    -22.8877601302  -0.030921346705 0.11780814  0.00350239  0.0485599 0.0000
  3    -22.9692902111  -0.081530080875 0.02384092  0.00073699  0.0219543 0.0000
  4    -22.9536048751   0.015685336024 0.01595748  0.00050174  0.0083026 0.0000
  5    -22.9705351037  -0.016930228664 0.01123491  0.00033789  0.0049687 0.0000
  6    -22.9732311526  -0.002696048901 0.00836476  0.00023854  0.0030607 0.0000
                      *** Initiating the SOSCF procedure ***
                           *** Shutting down DIIS ***
                      *** Re-Reading the Fockian *** 
                      *** Removing any level shift *** 
ITER      Energy       Delta-E        Grad      Rot      Max-DP    RMS-DP
  7    -22.96899636   0.0042347905  0.002992  0.002992  0.005022  0.000134
  8    -22.96715641   0.0018399502  0.000803  0.002206  0.002527  0.000062
  9    -22.96717095  -0.0000145398  0.000356  0.002159  0.002813  0.000066
 10    -22.96717626  -0.0000053111  0.000029  0.000059  0.000132  0.000004
                 **** Energy Check signals convergence ****
              ***Rediagonalizing the Fockian in SOSCF/NRSCF***

               *****************************************************
               *                     SUCCESS                       *
               *           SCF CONVERGED AFTER  11 CYCLES          *
               *****************************************************


----------------
TOTAL SCF ENERGY
----------------

Total Energy       :          -22.96717631 Eh            -624.96864 eV

Components:
Nuclear Repulsion  :          630.55794750 Eh           17158.35407 eV
Electronic Energy  :         -653.52512381 Eh          -17783.32271 eV

One Electron Energy:        -1216.83110951 Eh          -33111.65785 eV
Two Electron Energy:          563.30598570 Eh           15328.33515 eV


---------------
SCF CONVERGENCE
---------------

  Last Energy change         ...   -4.4676e-08  Tolerance :   1.0000e-06
  Last MAX-Density change    ...    4.2159e-05  Tolerance :   1.0000e-05
  Last RMS-Density change    ...    1.1791e-06  Tolerance :   1.0000e-06
  Last Orbital Gradient      ...    8.4267e-06  Tolerance :   5.0000e-05
  Last Orbital Rotation      ...    2.2449e-05  Tolerance :   5.0000e-05

             **** THE GBW FILE WAS UPDATED (/Users/mattyjones/GoogleDrive/Boise/Code/MorphCT/tests/output_EZ/donor_polymer/chromophores/input_orca/pair/00004-00029.gbw) ****
             **** DENSITY FILE WAS UPDATED (/Users/mattyjones/GoogleDrive/Boise/Code/MorphCT/tests/output_EZ/donor_polymer/chromophores/input_orca/pair/00004-00029.scfp.tmp) ****
             **** ENERGY FILE WAS UPDATED (/Users/mattyjones/GoogleDrive/Boise/Code/MorphCT/tests/output_EZ/donor_polymer/chromophores/input_orca/pair/00004-00029.en.tmp) ****
----------------
ORBITAL ENERGIES
----------------

  NO   OCC          E(Eh)            E(eV) 
   0   2.0000      -1.555561       -42.3290 
   1   2.0000      -1.555242       -42.3203 
   2   2.0000      -1.396161       -37.9915 
   3   2.0000      -1.382922       -37.6312 
   4   2.0000      -1.283321       -34.9209 
   5   2.0000      -1.277944       -34.7746 
   6   2.0000      -1.187458       -32.3124 
   7   2.0000      -1.182331       -32.1729 
   8   2.0000      -1.112429       -30.2707 
   9   2.0000      -1.106522       -30.1100 
  10   2.0000      -1.054299       -28.6889 
  11   2.0000      -1.051521       -28.6133 
  12   2.0000      -0.990896       -26.9637 
  13   2.0000      -0.973739       -26.4968 
  14   2.0000      -0.908211       -24.7137 
  15   2.0000      -0.906710       -24.6728 
  16   2.0000      -0.844477       -22.9794 
  17   2.0000      -0.836551       -22.7637 
  18   2.0000      -0.823111       -22.3980 
  19   2.0000      -0.820988       -22.3402 
  20   2.0000      -0.775845       -21.1118 
  21   2.0000      -0.768801       -20.9201 
  22   2.0000      -0.733771       -19.9669 
  23   2.0000      -0.724649       -19.7187 
  24   2.0000      -0.704788       -19.1783 
  25   2.0000      -0.682817       -18.5804 
  26   2.0000      -0.676626       -18.4119 
  27   2.0000      -0.669899       -18.2289 
  28   2.0000      -0.650408       -17.6985 
  29   2.0000      -0.633184       -17.2298 
  30   2.0000      -0.620742       -16.8913 
  31   2.0000      -0.603978       -16.4351 
  32   2.0000      -0.591229       -16.0882 
  33   2.0000      -0.590730       -16.0746 
  34   2.0000      -0.582726       -15.8568 
  35   2.0000      -0.574765       -15.6402 
  36   2.0000      -0.571185       -15.5427 
  37   2.0000      -0.566708       -15.4209 
  38   2.0000      -0.549385       -14.9495 
  39   2.0000      -0.548964       -14.9381 
  40   2.0000      -0.534676       -14.5493 
  41   2.0000      -0.531415       -14.4605 
  42   2.0000      -0.514639       -14.0040 
  43   2.0000      -0.512425       -13.9438 
  44   2.0000      -0.506914       -13.7938 
  45   2.0000      -0.503394       -13.6981 
  46   2.0000      -0.499805       -13.6004 
  47   2.0000      -0.496819       -13.5191 
  48   2.0000      -0.494492       -13.4558 
  49   2.0000      -0.490778       -13.3547 
  50   2.0000      -0.475082       -12.9276 
  51   2.0000      -0.470257       -12.7963 
  52   2.0000      -0.461765       -12.5653 
  53   2.0000      -0.461448       -12.5566 
  54   2.0000      -0.452329       -12.3085 
  55   2.0000      -0.439123       -11.9491 
  56   2.0000      -0.437220       -11.8974 
  57   2.0000      -0.430273       -11.7083 
  58   2.0000      -0.357341        -9.7237 
  59   2.0000      -0.356490        -9.7006 
  60   2.0000      -0.305667        -8.3176 
  61   2.0000      -0.305635        -8.3168 
  62   0.0000       0.005740         0.1562 
  63   0.0000       0.007335         0.1996 
  64   0.0000       0.040027         1.0892 
  65   0.0000       0.054972         1.4959 
  66   0.0000       0.072816         1.9814 
  67   0.0000       0.075130         2.0444 
  68   0.0000       0.083637         2.2759 
  69   0.0000       0.084810         2.3078 
  70   0.0000       0.099272         2.7013 
  71   0.0000       0.099767         2.7148 
  72   0.0000       0.106297         2.8925 
  73   0.0000       0.106494         2.8978 
  74   0.0000       0.120815         3.2875 
  75   0.0000       0.122303         3.3280 
  76   0.0000       0.142871         3.8877 
  77   0.0000       0.145718         3.9652 
  78   0.0000       0.158479         4.3124 
  79   0.0000       0.159625         4.3436 
  80   0.0000       0.164318         4.4713 
  81   0.0000       0.166030         4.5179 
  82   0.0000       0.172555         4.6955 
  83   0.0000       0.174058         4.7364 
  84   0.0000       0.202092         5.4992 
  85   0.0000       0.203578         5.5396 
  86   0.0000       0.220273         5.9939 
  87   0.0000       0.225715         6.1420 
  88   0.0000       0.229417         6.2428 
  89   0.0000       0.231890         6.3101 
  90   0.0000       0.231979         6.3125 
  91   0.0000       0.233318         6.3489 
  92   0.0000       0.236739         6.4420 
  93   0.0000       0.236786         6.4433 
  94   0.0000       0.238533         6.4908 
  95   0.0000       0.239112         6.5066 
  96   0.0000       0.239392         6.5142 
  97   0.0000       0.240323         6.5395 
  98   0.0000       0.241129         6.5615 
  99   0.0000       0.242165         6.5896 
 100   0.0000       0.244434         6.6514 
 101   0.0000       0.244613         6.6562 
 102   0.0000       0.253945         6.9102 
 103   0.0000       0.255945         6.9646 
 104   0.0000       0.265309         7.2194 
 105   0.0000       0.266380         7.2486 
 106   0.0000       0.274089         7.4583 
 107   0.0000       0.279202         7.5975 
 108   0.0000       0.304829         8.2948 
 109   0.0000       0.306016         8.3271 
 110   0.0000       0.308871         8.4048 
 111   0.0000       0.309676         8.4267 
 112   0.0000       0.341239         9.2856 
 113   0.0000       0.341879         9.3030 
 114   0.0000       0.364606         9.9214 
 115   0.0000       0.364992         9.9319 
 116   0.0000       0.404837        11.0162 
 117   0.0000       0.414141        11.2694 
 118   0.0000       0.427813        11.6414 
 119   0.0000       0.438121        11.9219 
-------
TIMINGS
-------

Total SCF time: 0 days 0 hours 0 min 0 sec 

Total time                  ....       0.110 sec
Sum of individual times     ....       0.089 sec  ( 80.2%)

Fock matrix formation       ....       0.043 sec  ( 38.7%)
Diagonalization             ....       0.023 sec  ( 20.8%)
Density matrix formation    ....       0.005 sec  (  4.4%)
Population analysis         ....       0.000 sec  (  0.0%)
Initial guess               ....       0.003 sec  (  2.6%)
Orbital Transformation      ....       0.000 sec  (  0.0%)
Orbital Orthonormalization  ....       0.000 sec  (  0.0%)
DIIS solution               ....       0.010 sec  (  8.8%)
SOSCF solution              ....       0.005 sec  (  4.8%)

-------------------------   --------------------
FINAL SINGLE POINT ENERGY       -22.967176307466
-------------------------   --------------------


                            ***************************************
                            *     ORCA property calculations      *
                            ***************************************

                                    ---------------------
                                    Active property flags
                                    ---------------------
   (+) Dipole Moment


------------------------------------------------------------------------------
                       ORCA ELECTRIC PROPERTIES CALCULATION
------------------------------------------------------------------------------

Dipole Moment Calculation                       ... on
Quadrupole Moment Calculation                   ... off
Polarizability Calculation                      ... off
GBWName                                         ... /Users/mattyjones/GoogleDrive/Boise/Code/MorphCT/tests/output_EZ/donor_polymer/chromophores/input_orca/pair/00004-00029.gbw
Electron density file                           ... /Users/mattyjones/GoogleDrive/Boise/Code/MorphCT/tests/output_EZ/donor_polymer/chromophores/input_orca/pair/00004-00029.scfp.tmp

-------------
DIPOLE MOMENT
-------------
                                X             Y             Z
Electronic contribution:    236.12519      94.61166      64.92161
Nuclear contribution   :   -126.30565     -50.53692     -33.65528
                        -----------------------------------------
Total Dipole Moment    :    109.81954      44.07474      31.26633
                        -----------------------------------------
Magnitude (a.u.)       :    122.39484
Magnitude (Debye)      :    311.10296


Timings for individual modules:

Sum of individual times         ...        0.204 sec (=   0.003 min)
STO integral calculation        ...        0.057 sec (=   0.001 min)  28.2 %
SCF iterations                  ...        0.147 sec (=   0.002 min)  71.8 %
                             ****ORCA TERMINATED NORMALLY****
TOTAL RUN TIME: 0 days 0 hours 0 minutes 0 seconds 511 msec

