
                                 *****************
                                 * O   R   C   A *
                                 *****************

           --- An Ab Initio, DFT and Semiempirical electronic structure package ---

                  #######################################################
                  #                        -***-                        #
                  #  Department of molecular theory and spectroscopy    #
                  #              Directorship: Frank Neese              #
                  # Max Planck Institute for Chemical Energy Conversion #
                  #                  D-45470 Muelheim/Ruhr              #
                  #                       Germany                       #
                  #                                                     #
                  #                  All rights reserved                #
                  #                        -***-                        #
                  #######################################################


                         Program Version 3.0.3 - RELEASE   -


 With contributions from (in alphabetic order):
   Ute Becker             : Parallelization
   Dmytro Bykov           : SCF Hessian
   Dmitry Ganyushin       : Spin-Orbit,Spin-Spin,Magnetic field MRCI
   Andreas Hansen         : Spin unrestricted coupled pair/coupled cluster methods
   Dimitrios Liakos       : Extrapolation schemes; parallel MDCI
   Robert Izsak           : Overlap fitted RIJCOSX, COSX-SCS-MP3
   Christian Kollmar      : KDIIS, OOCD, Brueckner-CCSD(T), CCSD density
   Simone Kossmann        : Meta GGA functionals, TD-DFT gradient, OOMP2, MP2 Hessian
   Taras Petrenko         : DFT Hessian,TD-DFT gradient, ASA and ECA modules, normal mode analysis, Resonance Raman, ABS, FL, XAS/XES, NRVS
   Christoph Reimann      : Effective Core Potentials
   Michael Roemelt        : Restricted open shell CIS
   Christoph Riplinger    : Improved optimizer, TS searches, QM/MM, DLPNO-CCSD
   Barbara Sandhoefer     : DKH picture change effects
   Igor Schapiro          : Molecular dynamics
   Kantharuban Sivalingam : CASSCF convergence, NEVPT2
   Boris Wezisla          : Elementary symmetry handling
   Frank Wennmohs         : Technical directorship


 We gratefully acknowledge several colleagues who have allowed us to
 interface, adapt or use parts of their codes:
   Stefan Grimme, W. Hujo, H. Kruse, T. Risthaus : VdW corrections, initial TS optimization,
                                                   DFT functionals, gCP
   Ed Valeev                                     : LibInt (2-el integral package), F12 methods
   Garnet Chan, S. Sharma, R. Olivares           : DMRG
   Ulf Ekstrom                                   : XCFun DFT Library
   Mihaly Kallay                                 : mrcc  (arbitrary order and MRCC methods)
   Andreas Klamt, Michael Diedenhofen            : otool_cosmo (COSMO solvation model)
   Frank Weinhold                                : gennbo (NPA and NBO analysis)
   Christopher J. Cramer and Donald G. Truhlar   : smd solvation model


 Your calculation uses the libint2 library for the computation of 2-el integrals
 For citations please refer to: http://libint.valeyev.net

 This ORCA versions uses:
   CBLAS   interface :  Fast vector & matrix operations
   LAPACKE interface :  Fast linear algebra routines
   SCALAPACK package :  Parallel linear algebra routines


leaving
================================================================================
                                        WARNINGS
                       Please study these warnings very carefully!
================================================================================
Now building the actual basis set

WARNING: Direct SCF is incompatible with Method<>HF and Method<>DFT
  ===> : conventional SCF is chosen

WARNING: The NDO methods need Guess=HUECKEL or Guess=HCORE or Guess=MOREAD
  ===> : Guess is set to Hueckel

WARNING: The NDO methods need %rel::SOCType==1
  ===> : %rel::SOCType is set to 1

WARNING: The NDO methods cannot have frozencore=1
  ===> : %method FrozenCore=0 end


INFO   : the flag for use of LIBINT has been found!

================================================================================
                                       INPUT FILE
================================================================================
NAME = /Users/mattyjones/GoogleDrive/Boise/Code/MorphCT/tests/output_EZ/donor_polymer/chromophores/input_orca/pair/00005-00028.inp
|  1> # ================================================================
|  2> # Orca input file made by Matty Jones
|  3> # ================================================================
|  4> ! ZINDO/S 
|  5> ! NOPOP
|  6> ! NOMOPRINT
|  7> * xyz 0   1
|  8>  C  -20.49579  -10.20116  -11.72199
|  9>  C  -19.27322  -9.54761  -11.56046
| 10>  C  -18.39382  -10.17698  -10.62515
| 11>  C  -18.92466  -11.33335  -10.04521
| 12>  S  -20.43292  -11.51368  -10.71082
| 13>  H  -19.08667  -8.38985  -11.45538
| 14>  C  -16.91776  -9.65878  -10.21640
| 15>  C  -16.71235  -8.06769  -9.65608
| 16>  C  -15.09973  -7.60442  -9.34556
| 17>  H  -15.10243  -6.45117  -9.51514
| 18>  H  -14.48527  -8.07060  -10.20505
| 19>  H  -17.14018  -7.35226  -10.44699
| 20>  H  -17.29859  -7.96607  -8.67117
| 21>  H  -16.48237  -10.34054  -9.37431
| 22>  H  -16.21602  -9.75999  -11.14568
| 23>  C  -14.33753  -7.84715  -7.92221
| 24>  C  -12.68380  -7.43646  -7.95343
| 25>  C  -12.27038  -5.84587  -7.59012
| 26>  H  -11.11603  -5.75536  -7.55287
| 27>  H  -12.71578  -5.55276  -6.56434
| 28>  H  -12.68507  -5.14702  -8.41365
| 29>  H  -12.14513  -8.12353  -7.20042
| 30>  H  -12.27850  -7.63507  -9.01302
| 31>  H  -14.41221  -8.96128  -7.62733
| 32>  H  -14.83548  -7.20841  -7.09893
| 33>  C  13.68823  4.24805  7.92365
| 34>  C  14.43700  5.22201  8.58594
| 35>  C  13.65099  6.16151  9.32337
| 36>  C  12.27461  5.92821  9.24297
| 37>  S  12.10498  4.59063  8.27729
| 38>  H  15.57937  5.22496  8.61492
| 39>  C  14.32884  7.36445  10.16766
| 40>  C  15.63382  8.15251  9.45141
| 41>  C  16.41121  9.42574  10.26483
| 42>  H  16.53491  9.14246  11.37517
| 43>  H  15.76503  10.37596  10.17870
| 44>  H  16.43934  7.34669  9.26699
| 45>  H  15.27120  8.57224  8.44032
| 46>  H  13.53734  8.20203  10.35571
| 47>  H  14.69841  6.96978  11.19879
| 48>  C  17.86332  9.64725  9.55509
| 49>  C  18.80351  10.98111  9.97485
| 50>  C  18.55503  12.26354  8.91403
| 51>  H  19.29932  13.11389  9.16074
| 52>  H  17.46966  12.64758  9.02395
| 53>  H  18.72963  11.89889  7.82898
| 54>  H  18.53189  11.31746  11.04094
| 55>  H  19.91414  10.67856  9.93103
| 56>  H  17.70605  9.69402  8.40781
| 57>  H  18.51396  8.71333  9.78917
| 58>  H  -21.29581  -9.91812  -12.35717
| 59>  H  -18.46028  -11.96287  -9.32991
| 60>  H  14.05449  3.45629  7.32153
| 61>  H  11.50152  6.48890  9.70294
| 62> *
| 63> 
| 64>                          ****END OF INPUT****
================================================================================

                       ****************************
                       * Single Point Calculation *
                       ****************************

---------------------------------
CARTESIAN COORDINATES (ANGSTROEM)
---------------------------------
  C    -20.495790  -10.201160  -11.721990
  C    -19.273220   -9.547610  -11.560460
  C    -18.393820  -10.176980  -10.625150
  C    -18.924660  -11.333350  -10.045210
  S    -20.432920  -11.513680  -10.710820
  H    -19.086670   -8.389850  -11.455380
  C    -16.917760   -9.658780  -10.216400
  C    -16.712350   -8.067690   -9.656080
  C    -15.099730   -7.604420   -9.345560
  H    -15.102430   -6.451170   -9.515140
  H    -14.485270   -8.070600  -10.205050
  H    -17.140180   -7.352260  -10.446990
  H    -17.298590   -7.966070   -8.671170
  H    -16.482370  -10.340540   -9.374310
  H    -16.216020   -9.759990  -11.145680
  C    -14.337530   -7.847150   -7.922210
  C    -12.683800   -7.436460   -7.953430
  C    -12.270380   -5.845870   -7.590120
  H    -11.116030   -5.755360   -7.552870
  H    -12.715780   -5.552760   -6.564340
  H    -12.685070   -5.147020   -8.413650
  H    -12.145130   -8.123530   -7.200420
  H    -12.278500   -7.635070   -9.013020
  H    -14.412210   -8.961280   -7.627330
  H    -14.835480   -7.208410   -7.098930
  C     13.688230    4.248050    7.923650
  C     14.437000    5.222010    8.585940
  C     13.650990    6.161510    9.323370
  C     12.274610    5.928210    9.242970
  S     12.104980    4.590630    8.277290
  H     15.579370    5.224960    8.614920
  C     14.328840    7.364450   10.167660
  C     15.633820    8.152510    9.451410
  C     16.411210    9.425740   10.264830
  H     16.534910    9.142460   11.375170
  H     15.765030   10.375960   10.178700
  H     16.439340    7.346690    9.266990
  H     15.271200    8.572240    8.440320
  H     13.537340    8.202030   10.355710
  H     14.698410    6.969780   11.198790
  C     17.863320    9.647250    9.555090
  C     18.803510   10.981110    9.974850
  C     18.555030   12.263540    8.914030
  H     19.299320   13.113890    9.160740
  H     17.469660   12.647580    9.023950
  H     18.729630   11.898890    7.828980
  H     18.531890   11.317460   11.040940
  H     19.914140   10.678560    9.931030
  H     17.706050    9.694020    8.407810
  H     18.513960    8.713330    9.789170
  H    -21.295810   -9.918120  -12.357170
  H    -18.460280  -11.962870   -9.329910
  H     14.054490    3.456290    7.321530
  H     11.501520    6.488900    9.702940

----------------------------
CARTESIAN COORDINATES (A.U.)
----------------------------
  NO LB      ZA    FRAG    MASS        X           Y           Z
   0 C     4.0000    0    12.011        -38.731429998361847        -19.277398648312115        -22.151350844563574
   1 C     4.0000    0    12.011        -36.421107518813741        -18.042368133487884        -21.846103382151274
   2 C     4.0000    0    12.011        -34.759282356643403        -19.231705070393900        -20.078623631833388
   3 C     4.0000    0    12.011        -35.762424577574151        -21.416927679876416        -18.982695857727098
   4 S     6.0000    0    32.060        -38.612622916322223        -21.757701993606439        -20.240516469726419
   5 H     1.0000    0     1.008        -36.068579108530741        -15.854518804679211        -21.647530959998829
   6 C     4.0000    0    12.011        -31.969933199407595        -18.252448987795908        -19.306198074593077
   7 C     4.0000    0    12.011        -31.581764554238831        -15.245724633375143        -18.247346727234319
   8 C     4.0000    0    12.011        -28.534354396154740        -14.370271207313445        -17.660548968129095
   9 H     1.0000    0     1.008        -28.539456656716329        -12.190944543368762        -17.981008725919459
  10 H     1.0000    0     1.008        -27.373193275905489        -15.251223736424855        -19.284749682973068
  11 H     1.0000    0     1.008        -32.390246086114360        -13.893757865383861        -19.741950023813978
  12 H     1.0000    0     1.008        -32.689597602988826        -15.053690663646066        -16.386136560673940
  13 H     1.0000    0     1.008        -31.147165337959621        -19.540788676858060        -17.714878594479327
  14 H     1.0000    0     1.008        -30.643836782189695        -18.443708169810076        -21.062282776323418
  15 C     4.0000    0    12.011        -27.094005136879961        -14.828964431800150        -14.970807275412279
  16 C     4.0000    0    12.011        -23.968908337430371        -14.052872805860032        -15.029804525313301
  17 C     4.0000    0    12.011        -23.187657759144646        -11.047093314506228        -14.343248123598370
  18 H     1.0000    0     1.008        -21.006252396452652        -10.876054202125014        -14.272855825109804
  19 H     1.0000    0     1.008        -24.029341779193174        -10.493195687392570        -12.404804849944629
  20 H     1.0000    0     1.008        -23.971308289620453         -9.726458205815362        -15.899494286666540
  21 H     1.0000    0     1.008        -22.950969560871012        -15.351246940693306        -13.606821849209259
  22 H     1.0000    0     1.008        -23.203002335352089        -14.428191313318131        -17.032139439554918
  23 H     1.0000    0     1.008        -27.235129884561204        -16.934365009385836        -14.413564833041580
  24 H     1.0000    0     1.008        -28.034994265266050        -13.621920761019290        -13.415033543877591
  25 C     4.0000    0    12.011         25.867005958124896          8.027651103204173         14.973528481045125
  26 C     4.0000    0    12.011         27.281976195421109          9.868168768598116         16.225075202279832
  27 C     4.0000    0    12.011         25.796632556897666         11.643566471417131         17.618615945217382
  28 C     4.0000    0    12.011         23.195651300691132         11.202693364373303         17.466681964050110
  29 S     6.0000    0    32.060         22.875097056594072          8.675033482162915         15.641811231045038
  30 H     1.0000    0     1.008         29.440742639028731          9.873743460693184         16.279839465640869
  31 C     4.0000    0    12.011         27.077583416776186         13.916793626956361         19.214092822825751
  32 C     4.0000    0    12.011         29.543638227020743         15.406011204054343         17.860576479404656
  33 C     4.0000    0    12.011         31.012692426269787         17.812067209546896         19.397717511258882
  34 H     1.0000    0     1.008         31.246451549035843         17.276745590329686         21.495956026797007
  35 H     1.0000    0     1.008         29.791589193052548         19.607722776521548         19.234955399344244
  36 H     1.0000    0     1.008         31.065850422416993         13.883232090817920         17.512073185786900
  37 H     1.0000    0     1.008         28.858385736338217         16.199185954245113         15.949893282658218
  38 H     1.0000    0     1.008         25.581865181777516         15.499590442206125         19.569455822309646
  39 H     1.0000    0     1.008         27.775969504089467         13.170975413681662         21.162646131295975
  40 C     4.0000    0    12.011         33.756782642598175         18.230660445471795         18.056503284969612
  41 C     4.0000    0    12.011         35.533484256449590         20.751290546463995         18.849734726944398
  42 C     4.0000    0    12.011         35.063925106692842         23.174732032388629         16.845075449558056
  43 H     1.0000    0     1.008         36.470429370909095         24.781660650368561         17.311289784057767
  44 H     1.0000    0     1.008         33.012873052718739         23.900462456859742         17.052794146198679
  45 H     1.0000    0     1.008         35.393871289675495         22.485643397654243         14.794628107946799
  46 H     1.0000    0     1.008         35.020196843953904         21.386899931608411         20.864352861056506
  47 H     1.0000    0     1.008         37.632270792566551         20.179553904646120         18.766926927755968
  48 H     1.0000    0     1.008         33.459585413516379         18.319042936755292         15.888458286044438
  49 H     1.0000    0     1.008         34.986314054372698         16.465807414480057         18.498850378397901
  50 H     1.0000    0     1.008        -40.243248700021532        -18.742530563367044        -23.351667090307675
  51 H     1.0000    0     1.008        -34.884873555503802        -22.606548075702523        -17.630974754133224
  52 H     1.0000    0     1.008         26.559137051934890          6.531441539410683         13.835686581288462
  53 H     1.0000    0     1.008         21.734722923817952         12.262243910401610         18.335899293869868

--------------------------------
INTERNAL COORDINATES (ANGSTROEM)
--------------------------------
 C      0   0   0   0.000000     0.000     0.000
 C      1   0   0   1.395671     0.000     0.000
 C      2   1   0   1.429775   114.102     0.000
 C      3   2   1   1.398325   113.693     0.000
 S      1   2   3   1.658049   105.479     0.000
 H      2   1   3   1.177392   127.559   223.379
 C      3   2   1   1.616899   125.858   180.385
 C      7   3   2   1.699329   119.589    54.291
 C      8   7   3   1.706337   115.369   183.558
 H      9   8   7   1.165654   103.883   152.110
 H      9   8   7   1.154819   104.941    39.923
 H      8   7   3   1.149094   108.119   304.483
 H      8   7   3   1.150674   107.658    63.464
 H      7   3   2   1.167680   109.608   175.914
 H      7   3   2   1.168864   108.623   292.973
 C      9   8   7   1.632725   124.019   272.681
 C     16   9   8   1.704249   113.653   173.743
 C     17  16   9   1.683118   117.524    88.374
 H     18  17  16   1.158492   108.997   174.529
 H     18  17  16   1.156079   109.663    54.537
 H     18  17  16   1.156962   109.217   294.053
 H     17  16   9   1.152933   107.325   210.089
 H     17  16   9   1.151714   108.468   328.300
 H     16   9   8   1.154910   109.622    53.496
 H     16   9   8   1.154874   109.752   293.951
 C     19  18  17  30.900521   147.271   228.705
 C     26  19  18   1.395666   153.411   307.677
 C     27  26  19   1.429781   114.102    34.820
 C     28  27  26   1.398326   113.692     0.000
 S     26  19  18   1.658042    53.645   350.778
 H     27  26  19   1.142741   123.378   209.900
 C     28  27  26   1.618447   121.817   179.659
 C     32  28  27   1.684347   116.770    40.688
 C     33  32  28   1.699147   120.099   180.135
 H     34  33  32   1.152564   109.033    42.287
 H     34  33  32   1.152339   109.000   282.721
 H     33  32  28   1.154218   106.380   300.674
 H     33  32  28   1.153243   107.427    57.839
 H     32  28  27   1.167637   109.468   159.693
 H     32  28  27   1.164292   110.059   278.741
 C     34  33  32   1.631386   107.501   162.598
 C     41  34  33   1.685034   119.720   171.248
 C     42  41  34   1.682768   111.336   265.325
 H     43  42  41   1.156689   109.317   186.276
 H     43  42  41   1.156545   109.373    65.973
 H     43  42  41   1.157924   109.176   306.078
 H     42  41  34   1.150416   109.302    25.871
 H     42  41  34   1.151936   108.698   145.772
 H     41  34  33   1.158953   108.383    48.426
 H     41  34  33   1.162038   107.555   291.980
 H      1   2   3   1.059999   127.261   180.000
 H      4   3   2   1.059999   127.206   180.000
 H     26  19  18   1.059990    75.585   155.661
 H     29  28  27   1.060007   127.206   180.000

---------------------------
INTERNAL COORDINATES (A.U.)
---------------------------
 C      0   0   0   0.000000     0.000     0.000
 C      1   0   0   2.637436     0.000     0.000
 C      2   1   0   2.701883   114.102     0.000
 C      3   2   1   2.642451   113.693     0.000
 S      1   2   3   3.133258   105.479     0.000
 H      2   1   3   2.224948   127.559   223.379
 C      3   2   1   3.055495   125.858   180.385
 C      7   3   2   3.211266   119.589    54.291
 C      8   7   3   3.224509   115.369   183.558
 H      9   8   7   2.202768   103.883   152.110
 H      9   8   7   2.182292   104.941    39.923
 H      8   7   3   2.171473   108.119   304.483
 H      8   7   3   2.174460   107.658    63.464
 H      7   3   2   2.206596   109.608   175.914
 H      7   3   2   2.208833   108.623   292.973
 C      9   8   7   3.085404   124.019   272.681
 C     16   9   8   3.220563   113.653   173.743
 C     17  16   9   3.180632   117.524    88.374
 H     18  17  16   2.189232   108.997   174.529
 H     18  17  16   2.184673   109.663    54.537
 H     18  17  16   2.186341   109.217   294.053
 H     17  16   9   2.178728   107.325   210.089
 H     17  16   9   2.176424   108.468   328.300
 H     16   9   8   2.182463   109.622    53.496
 H     16   9   8   2.182395   109.752   293.951
 C     19  18  17  58.393522   147.271   228.705
 C     26  19  18   2.637426   153.411   307.677
 C     27  26  19   2.701895   114.102    34.820
 C     28  27  26   2.642453   113.692     0.000
 S     26  19  18   3.133245    53.645   350.778
 H     27  26  19   2.159468   123.378   209.900
 C     28  27  26   3.058422   121.817   179.659
 C     32  28  27   3.182955   116.770    40.688
 C     33  32  28   3.210923   120.099   180.135
 H     34  33  32   2.178031   109.033    42.287
 H     34  33  32   2.177605   109.000   282.721
 H     33  32  28   2.181156   106.380   300.674
 H     33  32  28   2.179314   107.427    57.839
 H     32  28  27   2.206513   109.468   159.693
 H     32  28  27   2.200193   110.059   278.741
 C     34  33  32   3.082873   107.501   162.598
 C     41  34  33   3.184252   119.720   171.248
 C     42  41  34   3.179971   111.336   265.325
 H     43  42  41   2.185825   109.317   186.276
 H     43  42  41   2.185554   109.373    65.973
 H     43  42  41   2.188159   109.176   306.078
 H     42  41  34   2.173971   109.302    25.871
 H     42  41  34   2.176843   108.698   145.772
 H     41  34  33   2.190104   108.383    48.426
 H     41  34  33   2.195934   107.555   291.980
 H      1   2   3   2.003107   127.261   180.000
 H      4   3   2   2.003108   127.206   180.000
 H     26  19  18   2.003091    75.585   155.661
 H     29  28  27   2.003122   127.206   180.000

----------------------------
SLATER BASIS SET DIM= 120
----------------------------
  0 C     2 shells
 l=0 nsto= 1
    2       1.625000000000        1.000000000000
 l=1 nsto= 1
    2       1.625000000000        1.000000000000
  1 C     2 shells
 l=0 nsto= 1
    2       1.625000000000        1.000000000000
 l=1 nsto= 1
    2       1.625000000000        1.000000000000
  2 C     2 shells
 l=0 nsto= 1
    2       1.625000000000        1.000000000000
 l=1 nsto= 1
    2       1.625000000000        1.000000000000
  3 C     2 shells
 l=0 nsto= 1
    2       1.625000000000        1.000000000000
 l=1 nsto= 1
    2       1.625000000000        1.000000000000
  4 S     2 shells
 l=0 nsto= 1
    3       1.925000000000        1.000000000000
 l=1 nsto= 1
    3       1.925000000000        1.000000000000
  5 H     1 shells
 l=0 nsto= 1
    1       1.200000000000        1.000000000000
  6 C     2 shells
 l=0 nsto= 1
    2       1.625000000000        1.000000000000
 l=1 nsto= 1
    2       1.625000000000        1.000000000000
  7 C     2 shells
 l=0 nsto= 1
    2       1.625000000000        1.000000000000
 l=1 nsto= 1
    2       1.625000000000        1.000000000000
  8 C     2 shells
 l=0 nsto= 1
    2       1.625000000000        1.000000000000
 l=1 nsto= 1
    2       1.625000000000        1.000000000000
  9 H     1 shells
 l=0 nsto= 1
    1       1.200000000000        1.000000000000
 10 H     1 shells
 l=0 nsto= 1
    1       1.200000000000        1.000000000000
 11 H     1 shells
 l=0 nsto= 1
    1       1.200000000000        1.000000000000
 12 H     1 shells
 l=0 nsto= 1
    1       1.200000000000        1.000000000000
 13 H     1 shells
 l=0 nsto= 1
    1       1.200000000000        1.000000000000
 14 H     1 shells
 l=0 nsto= 1
    1       1.200000000000        1.000000000000
 15 C     2 shells
 l=0 nsto= 1
    2       1.625000000000        1.000000000000
 l=1 nsto= 1
    2       1.625000000000        1.000000000000
 16 C     2 shells
 l=0 nsto= 1
    2       1.625000000000        1.000000000000
 l=1 nsto= 1
    2       1.625000000000        1.000000000000
 17 C     2 shells
 l=0 nsto= 1
    2       1.625000000000        1.000000000000
 l=1 nsto= 1
    2       1.625000000000        1.000000000000
 18 H     1 shells
 l=0 nsto= 1
    1       1.200000000000        1.000000000000
 19 H     1 shells
 l=0 nsto= 1
    1       1.200000000000        1.000000000000
 20 H     1 shells
 l=0 nsto= 1
    1       1.200000000000        1.000000000000
 21 H     1 shells
 l=0 nsto= 1
    1       1.200000000000        1.000000000000
 22 H     1 shells
 l=0 nsto= 1
    1       1.200000000000        1.000000000000
 23 H     1 shells
 l=0 nsto= 1
    1       1.200000000000        1.000000000000
 24 H     1 shells
 l=0 nsto= 1
    1       1.200000000000        1.000000000000
 25 C     2 shells
 l=0 nsto= 1
    2       1.625000000000        1.000000000000
 l=1 nsto= 1
    2       1.625000000000        1.000000000000
 26 C     2 shells
 l=0 nsto= 1
    2       1.625000000000        1.000000000000
 l=1 nsto= 1
    2       1.625000000000        1.000000000000
 27 C     2 shells
 l=0 nsto= 1
    2       1.625000000000        1.000000000000
 l=1 nsto= 1
    2       1.625000000000        1.000000000000
 28 C     2 shells
 l=0 nsto= 1
    2       1.625000000000        1.000000000000
 l=1 nsto= 1
    2       1.625000000000        1.000000000000
 29 S     2 shells
 l=0 nsto= 1
    3       1.925000000000        1.000000000000
 l=1 nsto= 1
    3       1.925000000000        1.000000000000
 30 H     1 shells
 l=0 nsto= 1
    1       1.200000000000        1.000000000000
 31 C     2 shells
 l=0 nsto= 1
    2       1.625000000000        1.000000000000
 l=1 nsto= 1
    2       1.625000000000        1.000000000000
 32 C     2 shells
 l=0 nsto= 1
    2       1.625000000000        1.000000000000
 l=1 nsto= 1
    2       1.625000000000        1.000000000000
 33 C     2 shells
 l=0 nsto= 1
    2       1.625000000000        1.000000000000
 l=1 nsto= 1
    2       1.625000000000        1.000000000000
 34 H     1 shells
 l=0 nsto= 1
    1       1.200000000000        1.000000000000
 35 H     1 shells
 l=0 nsto= 1
    1       1.200000000000        1.000000000000
 36 H     1 shells
 l=0 nsto= 1
    1       1.200000000000        1.000000000000
 37 H     1 shells
 l=0 nsto= 1
    1       1.200000000000        1.000000000000
 38 H     1 shells
 l=0 nsto= 1
    1       1.200000000000        1.000000000000
 39 H     1 shells
 l=0 nsto= 1
    1       1.200000000000        1.000000000000
 40 C     2 shells
 l=0 nsto= 1
    2       1.625000000000        1.000000000000
 l=1 nsto= 1
    2       1.625000000000        1.000000000000
 41 C     2 shells
 l=0 nsto= 1
    2       1.625000000000        1.000000000000
 l=1 nsto= 1
    2       1.625000000000        1.000000000000
 42 C     2 shells
 l=0 nsto= 1
    2       1.625000000000        1.000000000000
 l=1 nsto= 1
    2       1.625000000000        1.000000000000
 43 H     1 shells
 l=0 nsto= 1
    1       1.200000000000        1.000000000000
 44 H     1 shells
 l=0 nsto= 1
    1       1.200000000000        1.000000000000
 45 H     1 shells
 l=0 nsto= 1
    1       1.200000000000        1.000000000000
 46 H     1 shells
 l=0 nsto= 1
    1       1.200000000000        1.000000000000
 47 H     1 shells
 l=0 nsto= 1
    1       1.200000000000        1.000000000000
 48 H     1 shells
 l=0 nsto= 1
    1       1.200000000000        1.000000000000
 49 H     1 shells
 l=0 nsto= 1
    1       1.200000000000        1.000000000000
 50 H     1 shells
 l=0 nsto= 1
    1       1.200000000000        1.000000000000
 51 H     1 shells
 l=0 nsto= 1
    1       1.200000000000        1.000000000000
 52 H     1 shells
 l=0 nsto= 1
    1       1.200000000000        1.000000000000
 53 H     1 shells
 l=0 nsto= 1
    1       1.200000000000        1.000000000000
------------------------------------------------------------------------------
                           ORCA NDO INTEGRAL CALCULATION
------------------------------------------------------------------------------

--------------
NDO PARAMETERS
--------------

Gamma integral treatment              ... Mataga-Nishimoto
Nuclear repulsuion treatment          ... Direct (ZA*ZB/RAB)
Interaction factors:
s-s (sigma) =    1.0000
s-p (sigma) =    1.0000
s-d (sigma) =    1.0000
p-p (sigma) =    1.2670  p-p(pi) =    0.5850
p-d (sigma) =    1.0000  p-d(pi) =    1.0000
d-d (sigma) =    1.0000  d-d(pi) =    1.0000 d-d (delta) =    1.0000

fGamma parameter for Mataga-Nishimoto gamma integrals:    1.2000

--------------------------
Parameters for Element H :
--------------------------
 One-electron parameters (in eV)
  U(s)  =   -13.060000 Beta(s) =    12.000000 Neff(s) =     1.000000
 One-center electron repulsion parameters (in eV)
  G(s,s)=    12.850000
--------------------------
Parameters for Element C :
--------------------------
 One-electron parameters (in eV)
  U(s)  =   -50.870766 Beta(s) =    17.000000 Neff(s) =     2.000000
  U(p)  =   -41.599980 Beta(p) =    17.000000 Neff(p) =     2.000000 
 One-center electron repulsion parameters (in eV)
  G(s,s)=    11.110000
  G(s,p)=    11.110000 G(p,p)  =    11.110000
 Slater-Condon parameters (in eV)
 F2(p,p)=     4.5098 G1(s,p)=    6.8977
--------------------------
Parameters for Element S :
--------------------------
 One-electron parameters (in eV)
  U(s)  =   -69.509597 Beta(s) =    15.000000 Neff(s) =     2.000000
  U(p)  =   -60.725746 Beta(p) =    15.000000 Neff(p) =     4.000000 
 One-center electron repulsion parameters (in eV)
  G(s,s)=    10.090000
  G(s,p)=    10.090000 G(p,p)  =    10.090000
 Slater-Condon parameters (in eV)
 F2(p,p)=     4.5377 G1(s,p)=    3.0756

 Number of atoms                    ....   54
 Number of basis functions          ....  120

 Overlap integrals                  .... done
 One electron matrix                .... done
 Nuclear repulsion                  .... done
 Integral list                      .... done
 Electron-electron repulsion        .... done
-------------------------------------------------------------------------------
                                 ORCA SCF
-------------------------------------------------------------------------------

------------
SCF SETTINGS
------------
Hamiltonian:
 ZDO-Hamiltonian        Method          .... INDO


General Settings:
 Integral files         IntName         .... /Users/mattyjones/GoogleDrive/Boise/Code/MorphCT/tests/output_EZ/donor_polymer/chromophores/input_orca/pair/00005-00028
 Hartree-Fock type      HFTyp           .... RHF
 Total Charge           Charge          ....    0
 Multiplicity           Mult            ....    1
 Number of Electrons    NEL             ....  124
 Basis Dimension        Dim             ....  120
 Nuclear Repulsion      ENuc            ....    628.4014636542 Eh

Convergence Acceleration:
 DIIS                   CNVDIIS         .... on
   Start iteration      DIISMaxIt       ....    12
   Startup error        DIISStart       ....  0.200000
   # of expansion vecs  DIISMaxEq       ....     5
   Bias factor          DIISBfac        ....   1.050
   Max. coefficient     DIISMaxC        ....  10.000
 Newton-Raphson         CNVNR           .... off
 SOSCF                  CNVSOSCF        .... on
   Start iteration      SOSCFMaxIt      ....   150
   Startup grad/error   SOSCFStart      ....  0.003300
 Level Shifting         CNVShift        .... on
   Level shift para.    LevelShift      ....    0.2500
   Turn off err/grad.   ShiftErr        ....    0.0010
 Zerner damping         CNVZerner       .... off
 Static damping         CNVDamp         .... on
   Fraction old density DampFac         ....    0.7000
   Max. Damping (<1)    DampMax         ....    0.9800
   Min. Damping (>=0)   DampMin         ....    0.0000
   Turn off err/grad.   DampErr         ....    0.1000
 Fernandez-Rico         CNVRico         .... off

SCF Procedure:
 Maximum # iterations   MaxIter         ....   125
 SCF integral mode      SCFMode         .... Conventional
 Integral Buffer length BufferLength    .... 1048576
 Integral index format  IndFormat       ....     0
 Integral value format  ValFormat       ....     0
 Integral Storage       Thresh          ....  1.000e-08 Eh

Convergence Tolerance:
 Convergence Check Mode ConvCheckMode   .... Total+1el-Energy
 Energy Change          TolE            ....  1.000e-06 Eh
 1-El. energy change                    ....  1.000e-03 Eh
 Orbital Gradient       TolG            ....  5.000e-05
 Orbital Rotation angle TolX            ....  5.000e-05
 DIIS Error             TolErr          ....  1.000e-06


Diagonalization of the overlap matrix:
Smallest eigenvalue                        ... 1.689e-01
Time for diagonalization                   ...    0.003 sec
Threshold for overlap eigenvalues          ... 1.000e-08
Number of eigenvalues below threshold      ... 0
Time for construction of square roots      ...    0.001 sec
Total time needed                          ...    0.004 sec

-------------------------------
INITIAL GUESS: EXTENDED HUECKEL
-------------------------------
EHT matrix was read from disk
EHT matrix was diagonalized
Initial density was built
                      ------------------
                      INITIAL GUESS DONE
                      ------------------

 InCore treatment chosen:
   Memory dedicated               ...    1024 MB
   Memory needed                  ...      0 MB
   Number of tiny    integrals    ...       0
   Number of small   integrals    ...       0
   Number of regular integrals    ...    7392

--------------
SCF ITERATIONS
--------------
ITER       Energy         Delta-E        Max-DP      RMS-DP      [F,P]     Damp
  0    -23.7366976147   0.000000000000 0.04298751  0.00147700  0.1108455 0.7000
  1    -23.7799339169  -0.043236302161 0.03994546  0.00139275  0.0758100 0.7000
                               ***Turning on DIIS***
  2    -23.8118676539  -0.031933736967 0.10011062  0.00357286  0.0461178 0.0000
  3    -23.8955047641  -0.083637110270 0.01832637  0.00073706  0.0210869 0.0000
  4    -23.8793261258   0.016178638337 0.01112395  0.00051248  0.0072777 0.0000
  5    -23.8970489684  -0.017722842656 0.00785356  0.00034947  0.0040679 0.0000
  6    -23.8991957528  -0.002146784377 0.00586889  0.00025062  0.0021341 0.0000
                      *** Initiating the SOSCF procedure ***
                           *** Shutting down DIIS ***
                      *** Re-Reading the Fockian *** 
                      *** Removing any level shift *** 
ITER      Energy       Delta-E        Grad      Rot      Max-DP    RMS-DP
  7    -23.89558280   0.0036129492  0.003222  0.003222  0.003522  0.000144
  8    -23.89360496   0.0019778486  0.000942  0.002677  0.001772  0.000068
  9    -23.89362224  -0.0000172892  0.000417  0.002695  0.002164  0.000075
 10    -23.89362892  -0.0000066758  0.000041  0.000077  0.000147  0.000005
                 **** Energy Check signals convergence ****
              ***Rediagonalizing the Fockian in SOSCF/NRSCF***

               *****************************************************
               *                     SUCCESS                       *
               *           SCF CONVERGED AFTER  11 CYCLES          *
               *****************************************************


----------------
TOTAL SCF ENERGY
----------------

Total Energy       :          -23.89362899 Eh            -650.17870 eV

Components:
Nuclear Repulsion  :          628.40146365 Eh           17099.67316 eV
Electronic Energy  :         -652.29509264 Eh          -17749.85186 eV

One Electron Energy:        -1214.19940314 Eh          -33040.04548 eV
Two Electron Energy:          561.90431050 Eh           15290.19363 eV


---------------
SCF CONVERGENCE
---------------

  Last Energy change         ...   -6.8239e-08  Tolerance :   1.0000e-06
  Last MAX-Density change    ...    6.3915e-05  Tolerance :   1.0000e-05
  Last RMS-Density change    ...    1.7638e-06  Tolerance :   1.0000e-06
  Last Orbital Gradient      ...    1.7435e-05  Tolerance :   5.0000e-05
  Last Orbital Rotation      ...    3.5770e-05  Tolerance :   5.0000e-05

             **** THE GBW FILE WAS UPDATED (/Users/mattyjones/GoogleDrive/Boise/Code/MorphCT/tests/output_EZ/donor_polymer/chromophores/input_orca/pair/00005-00028.gbw) ****
             **** DENSITY FILE WAS UPDATED (/Users/mattyjones/GoogleDrive/Boise/Code/MorphCT/tests/output_EZ/donor_polymer/chromophores/input_orca/pair/00005-00028.scfp.tmp) ****
             **** ENERGY FILE WAS UPDATED (/Users/mattyjones/GoogleDrive/Boise/Code/MorphCT/tests/output_EZ/donor_polymer/chromophores/input_orca/pair/00005-00028.en.tmp) ****
----------------
ORBITAL ENERGIES
----------------

  NO   OCC          E(Eh)            E(eV) 
   0   2.0000      -1.560105       -42.4526 
   1   2.0000      -1.557105       -42.3710 
   2   2.0000      -1.405145       -38.2359 
   3   2.0000      -1.391524       -37.8653 
   4   2.0000      -1.297185       -35.2982 
   5   2.0000      -1.293019       -35.1848 
   6   2.0000      -1.186820       -32.2950 
   7   2.0000      -1.178731       -32.0749 
   8   2.0000      -1.113956       -30.3123 
   9   2.0000      -1.109763       -30.1982 
  10   2.0000      -1.041367       -28.3370 
  11   2.0000      -1.023728       -27.8571 
  12   2.0000      -0.960931       -26.1483 
  13   2.0000      -0.953019       -25.9330 
  14   2.0000      -0.901798       -24.5392 
  15   2.0000      -0.897749       -24.4290 
  16   2.0000      -0.868790       -23.6410 
  17   2.0000      -0.860633       -23.4190 
  18   2.0000      -0.833279       -22.6747 
  19   2.0000      -0.822938       -22.3933 
  20   2.0000      -0.770246       -20.9595 
  21   2.0000      -0.770054       -20.9542 
  22   2.0000      -0.734698       -19.9921 
  23   2.0000      -0.726337       -19.7646 
  24   2.0000      -0.715332       -19.4652 
  25   2.0000      -0.681411       -18.5421 
  26   2.0000      -0.673749       -18.3337 
  27   2.0000      -0.664958       -18.0944 
  28   2.0000      -0.649831       -17.6828 
  29   2.0000      -0.639385       -17.3985 
  30   2.0000      -0.638025       -17.3615 
  31   2.0000      -0.617774       -16.8105 
  32   2.0000      -0.583225       -15.8704 
  33   2.0000      -0.579294       -15.7634 
  34   2.0000      -0.577558       -15.7162 
  35   2.0000      -0.570640       -15.5279 
  36   2.0000      -0.567464       -15.4415 
  37   2.0000      -0.566541       -15.4164 
  38   2.0000      -0.559757       -15.2318 
  39   2.0000      -0.559531       -15.2256 
  40   2.0000      -0.529455       -14.4072 
  41   2.0000      -0.529001       -14.3948 
  42   2.0000      -0.520995       -14.1770 
  43   2.0000      -0.517893       -14.0926 
  44   2.0000      -0.512383       -13.9427 
  45   2.0000      -0.506189       -13.7741 
  46   2.0000      -0.495198       -13.4750 
  47   2.0000      -0.491357       -13.3705 
  48   2.0000      -0.488882       -13.3032 
  49   2.0000      -0.488252       -13.2860 
  50   2.0000      -0.481384       -13.0991 
  51   2.0000      -0.477675       -12.9982 
  52   2.0000      -0.472490       -12.8571 
  53   2.0000      -0.468390       -12.7456 
  54   2.0000      -0.467012       -12.7080 
  55   2.0000      -0.454349       -12.3635 
  56   2.0000      -0.438495       -11.9321 
  57   2.0000      -0.436942       -11.8898 
  58   2.0000      -0.356996        -9.7144 
  59   2.0000      -0.349422        -9.5083 
  60   2.0000      -0.304810        -8.2943 
  61   2.0000      -0.304456        -8.2847 
  62   0.0000       0.002389         0.0650 
  63   0.0000       0.007874         0.2143 
  64   0.0000       0.057992         1.5780 
  65   0.0000       0.070192         1.9100 
  66   0.0000       0.073559         2.0016 
  67   0.0000       0.075033         2.0418 
  68   0.0000       0.089644         2.4393 
  69   0.0000       0.091279         2.4838 
  70   0.0000       0.104724         2.8497 
  71   0.0000       0.104942         2.8556 
  72   0.0000       0.108939         2.9644 
  73   0.0000       0.109367         2.9760 
  74   0.0000       0.124236         3.3806 
  75   0.0000       0.126068         3.4305 
  76   0.0000       0.141019         3.8373 
  77   0.0000       0.144278         3.9260 
  78   0.0000       0.154434         4.2024 
  79   0.0000       0.155222         4.2238 
  80   0.0000       0.165707         4.5091 
  81   0.0000       0.170094         4.6285 
  82   0.0000       0.171278         4.6607 
  83   0.0000       0.178780         4.8648 
  84   0.0000       0.199550         5.4300 
  85   0.0000       0.204561         5.5664 
  86   0.0000       0.233799         6.3620 
  87   0.0000       0.234809         6.3895 
  88   0.0000       0.235135         6.3983 
  89   0.0000       0.235584         6.4106 
  90   0.0000       0.237420         6.4605 
  91   0.0000       0.239221         6.5095 
  92   0.0000       0.240087         6.5331 
  93   0.0000       0.240737         6.5508 
  94   0.0000       0.241261         6.5650 
  95   0.0000       0.242487         6.5984 
  96   0.0000       0.242638         6.6025 
  97   0.0000       0.242795         6.6068 
  98   0.0000       0.244264         6.6468 
  99   0.0000       0.244766         6.6604 
 100   0.0000       0.251423         6.8416 
 101   0.0000       0.255310         6.9473 
 102   0.0000       0.257428         7.0050 
 103   0.0000       0.260316         7.0835 
 104   0.0000       0.265328         7.2199 
 105   0.0000       0.266957         7.2643 
 106   0.0000       0.275278         7.4907 
 107   0.0000       0.287109         7.8126 
 108   0.0000       0.299200         8.1417 
 109   0.0000       0.304119         8.2755 
 110   0.0000       0.309272         8.4157 
 111   0.0000       0.310303         8.4438 
 112   0.0000       0.338656         9.2153 
 113   0.0000       0.339517         9.2387 
 114   0.0000       0.353739         9.6257 
 115   0.0000       0.354179         9.6377 
 116   0.0000       0.409026        11.1302 
 117   0.0000       0.413805        11.2602 
 118   0.0000       0.429089        11.6761 
 119   0.0000       0.433350        11.7921 
-------
TIMINGS
-------

Total SCF time: 0 days 0 hours 0 min 0 sec 

Total time                  ....       0.149 sec
Sum of individual times     ....       0.112 sec  ( 75.6%)

Fock matrix formation       ....       0.049 sec  ( 32.9%)
Diagonalization             ....       0.026 sec  ( 17.6%)
Density matrix formation    ....       0.005 sec  (  3.7%)
Population analysis         ....       0.000 sec  (  0.0%)
Initial guess               ....       0.003 sec  (  2.0%)
Orbital Transformation      ....       0.000 sec  (  0.0%)
Orbital Orthonormalization  ....       0.000 sec  (  0.0%)
DIIS solution               ....       0.023 sec  ( 15.4%)
SOSCF solution              ....       0.006 sec  (  3.9%)

-------------------------   --------------------
FINAL SINGLE POINT ENERGY       -23.893628988294
-------------------------   --------------------


                            ***************************************
                            *     ORCA property calculations      *
                            ***************************************

                                    ---------------------
                                    Active property flags
                                    ---------------------
   (+) Dipole Moment


------------------------------------------------------------------------------
                       ORCA ELECTRIC PROPERTIES CALCULATION
------------------------------------------------------------------------------

Dipole Moment Calculation                       ... on
Quadrupole Moment Calculation                   ... off
Polarizability Calculation                      ... off
GBWName                                         ... /Users/mattyjones/GoogleDrive/Boise/Code/MorphCT/tests/output_EZ/donor_polymer/chromophores/input_orca/pair/00005-00028.gbw
Electron density file                           ... /Users/mattyjones/GoogleDrive/Boise/Code/MorphCT/tests/output_EZ/donor_polymer/chromophores/input_orca/pair/00005-00028.scfp.tmp

-------------
DIPOLE MOMENT
-------------
                                X             Y             Z
Electronic contribution:   -229.28597    -190.00480     -70.13702
Nuclear contribution   :    120.17696     100.81709      36.04838
                        -----------------------------------------
Total Dipole Moment    :   -109.10901     -89.18770     -34.08864
                        -----------------------------------------
Magnitude (a.u.)       :    144.98710
Magnitude (Debye)      :    368.52791


Timings for individual modules:

Sum of individual times         ...        0.261 sec (=   0.004 min)
STO integral calculation        ...        0.051 sec (=   0.001 min)  19.5 %
SCF iterations                  ...        0.210 sec (=   0.004 min)  80.5 %
                             ****ORCA TERMINATED NORMALLY****
TOTAL RUN TIME: 0 days 0 hours 0 minutes 0 seconds 583 msec

