
                                 *****************
                                 * O   R   C   A *
                                 *****************

           --- An Ab Initio, DFT and Semiempirical electronic structure package ---

                  #######################################################
                  #                        -***-                        #
                  #  Department of molecular theory and spectroscopy    #
                  #              Directorship: Frank Neese              #
                  # Max Planck Institute for Chemical Energy Conversion #
                  #                  D-45470 Muelheim/Ruhr              #
                  #                       Germany                       #
                  #                                                     #
                  #                  All rights reserved                #
                  #                        -***-                        #
                  #######################################################


                         Program Version 3.0.3 - RELEASE   -


 With contributions from (in alphabetic order):
   Ute Becker             : Parallelization
   Dmytro Bykov           : SCF Hessian
   Dmitry Ganyushin       : Spin-Orbit,Spin-Spin,Magnetic field MRCI
   Andreas Hansen         : Spin unrestricted coupled pair/coupled cluster methods
   Dimitrios Liakos       : Extrapolation schemes; parallel MDCI
   Robert Izsak           : Overlap fitted RIJCOSX, COSX-SCS-MP3
   Christian Kollmar      : KDIIS, OOCD, Brueckner-CCSD(T), CCSD density
   Simone Kossmann        : Meta GGA functionals, TD-DFT gradient, OOMP2, MP2 Hessian
   Taras Petrenko         : DFT Hessian,TD-DFT gradient, ASA and ECA modules, normal mode analysis, Resonance Raman, ABS, FL, XAS/XES, NRVS
   Christoph Reimann      : Effective Core Potentials
   Michael Roemelt        : Restricted open shell CIS
   Christoph Riplinger    : Improved optimizer, TS searches, QM/MM, DLPNO-CCSD
   Barbara Sandhoefer     : DKH picture change effects
   Igor Schapiro          : Molecular dynamics
   Kantharuban Sivalingam : CASSCF convergence, NEVPT2
   Boris Wezisla          : Elementary symmetry handling
   Frank Wennmohs         : Technical directorship


 We gratefully acknowledge several colleagues who have allowed us to
 interface, adapt or use parts of their codes:
   Stefan Grimme, W. Hujo, H. Kruse, T. Risthaus : VdW corrections, initial TS optimization,
                                                   DFT functionals, gCP
   Ed Valeev                                     : LibInt (2-el integral package), F12 methods
   Garnet Chan, S. Sharma, R. Olivares           : DMRG
   Ulf Ekstrom                                   : XCFun DFT Library
   Mihaly Kallay                                 : mrcc  (arbitrary order and MRCC methods)
   Andreas Klamt, Michael Diedenhofen            : otool_cosmo (COSMO solvation model)
   Frank Weinhold                                : gennbo (NPA and NBO analysis)
   Christopher J. Cramer and Donald G. Truhlar   : smd solvation model


 Your calculation uses the libint2 library for the computation of 2-el integrals
 For citations please refer to: http://libint.valeyev.net

 This ORCA versions uses:
   CBLAS   interface :  Fast vector & matrix operations
   LAPACKE interface :  Fast linear algebra routines
   SCALAPACK package :  Parallel linear algebra routines


leaving
================================================================================
                                        WARNINGS
                       Please study these warnings very carefully!
================================================================================
Now building the actual basis set

WARNING: Direct SCF is incompatible with Method<>HF and Method<>DFT
  ===> : conventional SCF is chosen

WARNING: The NDO methods need Guess=HUECKEL or Guess=HCORE or Guess=MOREAD
  ===> : Guess is set to Hueckel

WARNING: The NDO methods need %rel::SOCType==1
  ===> : %rel::SOCType is set to 1

WARNING: The NDO methods cannot have frozencore=1
  ===> : %method FrozenCore=0 end


INFO   : the flag for use of LIBINT has been found!

================================================================================
                                       INPUT FILE
================================================================================
NAME = /Users/mattyjones/GoogleDrive/Boise/Code/MorphCT/tests/output_EZ/donor_polymer/chromophores/input_orca/pair/00006-00025.inp
|  1> # ================================================================
|  2> # Orca input file made by Matty Jones
|  3> # ================================================================
|  4> ! ZINDO/S 
|  5> ! NOPOP
|  6> ! NOMOPRINT
|  7> * xyz 0   1
|  8>  C  26.11587  -0.61510  -7.04493
|  9>  C  25.51363  -1.87127  -7.13009
| 10>  C  26.05045  -2.83873  -6.22449
| 11>  C  27.08177  -2.34399  -5.42017
| 12>  S  27.27249  -0.75790  -5.86556
| 13>  H  24.67208  -2.13046  -7.85750
| 14>  C  25.43613  -4.34112  -6.23207
| 15>  C  25.08360  -5.20749  -4.80520
| 16>  C  24.42942  -6.77289  -4.98133
| 17>  H  24.88410  -7.19530  -5.95989
| 18>  H  24.85500  -7.39027  -4.09559
| 19>  H  26.06586  -5.36308  -4.23093
| 20>  H  24.35015  -4.58054  -4.18164
| 21>  H  26.17876  -5.03215  -6.81813
| 22>  H  24.42960  -4.33193  -6.82329
| 23>  C  22.81586  -7.02333  -5.02438
| 24>  C  22.06401  -7.16042  -6.53548
| 25>  C  21.39891  -5.75042  -7.16148
| 26>  H  20.44590  -6.01755  -7.76336
| 27>  H  22.16617  -5.23823  -7.85935
| 28>  H  21.11891  -5.03415  -6.29710
| 29>  H  22.84962  -7.54665  -7.28599
| 30>  H  21.21885  -7.93997  -6.43673
| 31>  H  22.58002  -8.00508  -4.45470
| 32>  H  22.29375  -6.15125  -4.46890
| 33>  C  -20.54179  6.95661  4.38970
| 34>  C  -21.46390  6.28956  5.19757
| 35>  C  -22.21401  7.14892  6.05962
| 36>  C  -21.88252  8.50136  5.93180
| 37>  S  -20.69549  8.56188  4.77520
| 38>  H  -21.40279  5.16892  5.39357
| 39>  C  -23.33836  6.56151  7.07353
| 40>  C  -24.50167  5.53937  6.33025
| 41>  C  -25.82868  4.63004  6.92397
| 42>  H  -26.13498  5.11814  7.92622
| 43>  H  -26.69015  4.76796  6.16477
| 44>  H  -23.86778  4.75942  5.81410
| 45>  H  -24.98758  6.23182  5.53471
| 46>  H  -23.93173  7.42782  7.57057
| 47>  H  -22.82725  5.94061  7.91046
| 48>  C  -25.60329  3.02949  7.17161
| 49>  C  -25.70298  2.04677  5.78448
| 50>  C  -27.19817  1.46510  5.27094
| 51>  H  -27.03330  0.52551  4.61359
| 52>  H  -27.72762  2.28222  4.64475
| 53>  H  -27.84743  1.19026  6.18648
| 54>  H  -25.03831  1.12422  5.98686
| 55>  H  -25.26941  2.65091  4.91212
| 56>  H  -26.40798  2.64396  7.90766
| 57>  H  -24.55974  2.85625  7.63612
| 58>  H  25.88293  0.24820  -7.61419
| 59>  H  27.62742  -2.87213  -4.68062
| 60>  H  -19.88226  6.52747  3.67946
| 61>  H  -22.30209  9.31710  6.46295
| 62> *
| 63> 
| 64>                          ****END OF INPUT****
================================================================================

                       ****************************
                       * Single Point Calculation *
                       ****************************

---------------------------------
CARTESIAN COORDINATES (ANGSTROEM)
---------------------------------
  C     26.115870   -0.615100   -7.044930
  C     25.513630   -1.871270   -7.130090
  C     26.050450   -2.838730   -6.224490
  C     27.081770   -2.343990   -5.420170
  S     27.272490   -0.757900   -5.865560
  H     24.672080   -2.130460   -7.857500
  C     25.436130   -4.341120   -6.232070
  C     25.083600   -5.207490   -4.805200
  C     24.429420   -6.772890   -4.981330
  H     24.884100   -7.195300   -5.959890
  H     24.855000   -7.390270   -4.095590
  H     26.065860   -5.363080   -4.230930
  H     24.350150   -4.580540   -4.181640
  H     26.178760   -5.032150   -6.818130
  H     24.429600   -4.331930   -6.823290
  C     22.815860   -7.023330   -5.024380
  C     22.064010   -7.160420   -6.535480
  C     21.398910   -5.750420   -7.161480
  H     20.445900   -6.017550   -7.763360
  H     22.166170   -5.238230   -7.859350
  H     21.118910   -5.034150   -6.297100
  H     22.849620   -7.546650   -7.285990
  H     21.218850   -7.939970   -6.436730
  H     22.580020   -8.005080   -4.454700
  H     22.293750   -6.151250   -4.468900
  C    -20.541790    6.956610    4.389700
  C    -21.463900    6.289560    5.197570
  C    -22.214010    7.148920    6.059620
  C    -21.882520    8.501360    5.931800
  S    -20.695490    8.561880    4.775200
  H    -21.402790    5.168920    5.393570
  C    -23.338360    6.561510    7.073530
  C    -24.501670    5.539370    6.330250
  C    -25.828680    4.630040    6.923970
  H    -26.134980    5.118140    7.926220
  H    -26.690150    4.767960    6.164770
  H    -23.867780    4.759420    5.814100
  H    -24.987580    6.231820    5.534710
  H    -23.931730    7.427820    7.570570
  H    -22.827250    5.940610    7.910460
  C    -25.603290    3.029490    7.171610
  C    -25.702980    2.046770    5.784480
  C    -27.198170    1.465100    5.270940
  H    -27.033300    0.525510    4.613590
  H    -27.727620    2.282220    4.644750
  H    -27.847430    1.190260    6.186480
  H    -25.038310    1.124220    5.986860
  H    -25.269410    2.650910    4.912120
  H    -26.407980    2.643960    7.907660
  H    -24.559740    2.856250    7.636120
  H     25.882930    0.248200   -7.614190
  H     27.627420   -2.872130   -4.680620
  H    -19.882260    6.527470    3.679460
  H    -22.302090    9.317100    6.462950

----------------------------
CARTESIAN COORDINATES (A.U.)
----------------------------
  NO LB      ZA    FRAG    MASS        X           Y           Z
   0 C     4.0000    0    12.011         49.351842049090003         -1.162370544974962        -13.312988332645844
   1 C     4.0000    0    12.011         48.213773382197260         -3.536187822622820        -13.473917410210577
   2 C     4.0000    0    12.011         49.228216165408874         -5.364422268146274        -11.762581423331492
   3 C     4.0000    0    12.011         51.177128521844530         -4.429499160650074        -10.242636899295951
   4 S     6.0000    0    32.060         51.537537090105999         -1.432223436898917        -11.084302022083138
   5 H     1.0000    0     1.008         46.623474354195835         -4.025985939273870        -14.848523097286234
   6 C     4.0000    0    12.011         48.067319606818366         -8.203527914488225        -11.776905547426615
   7 C     4.0000    0    12.011         47.401134452827108         -9.840729945133578         -9.080512018718398
   8 C     4.0000    0    12.011         46.164913410538503        -12.798907235173907         -9.413349482685948
   9 H     1.0000    0     1.008         47.024134089109822        -13.597146451403582        -11.262559888295929
  10 H     1.0000    0     1.008         46.969143058612708        -13.965586355734208         -7.739543456826539
  11 H     1.0000    0     1.008         49.257336845132599        -10.134752434310386         -7.995298991791441
  12 H     1.0000    0     1.008         46.015114819902564         -8.655966145471650         -7.902154390650463
  13 H     1.0000    0     1.008         49.470686925652309         -9.509385364811825        -12.884398445472504
  14 H     1.0000    0     1.008         46.165253561242608         -8.186161331317487        -12.894149432323537
  15 C     4.0000    0    12.011         43.115726909888529        -13.272170248153143         -9.494702192751259
  16 C     4.0000    0    12.011         41.694936316099835        -13.531232803852410        -12.350267353719662
  17 C     4.0000    0    12.011         40.438079464428810        -10.866718955023444        -13.533235913554366
  18 H     1.0000    0     1.008         38.637151561540520        -11.371521497177827        -14.670624279038888
  19 H     1.0000    0     1.008         41.887990737941230         -9.898820126490318        -14.852019090633990
  20 H     1.0000    0     1.008         39.908956146930862         -9.513164817079669        -11.899794437915515
  21 H     1.0000    0     1.008         43.179524064169712        -14.261101728556813        -13.768525714488900
  22 H     1.0000    0     1.008         40.097815376754951        -15.004368811550719        -12.163656897994938
  23 H     1.0000    0     1.008         42.670053898464545        -15.127408880130332         -8.418163008778999
  24 H     1.0000    0     1.008         42.129081998106905        -11.624177881283099         -8.444997119880680
  25 C     4.0000    0    12.011        -38.818357400522224         13.146087720497919          8.295330810074120
  26 C     4.0000    0    12.011        -40.560892765872353         11.885545902865747          9.821983861885080
  27 C     4.0000    0    12.011        -41.978395236188021         13.509500953312315         11.451022275631894
  28 C     4.0000    0    12.011        -41.351969920054465         16.065242165872771         11.209477481194080
  29 S     6.0000    0    32.060        -39.108808307305921         16.179608391497688          9.023820234700761
  30 H     1.0000    0     1.008        -40.445411601828425          9.767843208148236         10.192370184133646
  31 C     4.0000    0    12.011        -44.103108814862388         12.399456924985632         13.367034500075992
  32 C     4.0000    0    12.011        -46.301446123714314         10.467892254459363         11.962438859255004
  33 C     4.0000    0    12.011        -48.809131600689149          8.749507589100752         13.084407059486729
  34 H     1.0000    0     1.008        -49.387954715509231          9.671882915067716         14.978385077209303
  35 H     1.0000    0     1.008        -50.437073973278295          9.010138617491172         11.649726978613714
  36 H     1.0000    0     1.008        -45.103567624682974          8.994000356307485         10.987056715231549
  37 H     1.0000    0     1.008        -47.219682949447993         11.776433115893134         10.459086130675290
  38 H     1.0000    0     1.008        -45.224415610947240         14.036545572062950         14.306303977680210
  39 H     1.0000    0     1.008        -43.137250890553894         11.226125968433928         14.948602993338703
  40 C     4.0000    0    12.011        -48.383206227364646          5.724906425453093         13.552378839290988
  41 C     4.0000    0    12.011        -48.571593025655254          3.867834759126000         10.931083027144803
  42 C     4.0000    0    12.011        -51.397092643832970          2.768637758808026          9.960633068330884
  43 H     1.0000    0     1.008        -51.085533496133372          0.993069980636957          8.718421594197748
  44 H     1.0000    0     1.008        -52.397608145437580          4.312770777357759          8.777305460530734
  45 H     1.0000    0     1.008        -52.624016233542683          2.249265428161109         11.690752932981146
  46 H     1.0000    0     1.008        -47.315548756221816          2.124467914276949         11.313525802127785
  47 H     1.0000    0     1.008        -47.752264465771020          5.009493905673185          9.282561536957258
  48 H     1.0000    0     1.008        -49.903849950069734          4.996360309042433         14.943311760163725
  49 H     1.0000    0     1.008        -46.411182520311122          5.397530270012576         14.430175525758749
  50 H     1.0000    0     1.008         48.911649243454384          0.469030026439255        -14.388733831641854
  51 H     1.0000    0     1.008         52.208257586818668         -5.427539121019244         -8.845089936954489
  52 H     1.0000    0     1.008        -37.572026323417141         12.335130647386952          6.953171720717889
  53 H     1.0000    0     1.008        -42.144842314063808         17.606767362357694         12.213205517226355

--------------------------------
INTERNAL COORDINATES (ANGSTROEM)
--------------------------------
 C      0   0   0   0.000000     0.000     0.000
 C      1   0   0   1.395675     0.000     0.000
 C      2   1   0   1.429778   114.102     0.000
 C      3   2   1   1.398327   113.693     0.000
 S      1   2   3   1.658034   105.480     0.000
 H      2   1   3   1.142152   124.128   180.572
 C      3   2   1   1.623152   118.767   180.238
 C      7   3   2   1.706116   122.978   223.456
 C      8   7   3   1.705711   117.317   179.514
 H      9   8   7   1.158768   105.739    31.811
 H      9   8   7   1.160522   105.591   145.982
 H      8   7   3   1.148403   108.076   297.606
 H      8   7   3   1.148844   107.983    57.042
 H      7   3   2   1.171532   107.962   101.894
 H      7   3   2   1.167359   108.748   345.746
 C      9   8   7   1.633447   121.486   268.469
 C     16   9   8   1.693368   118.328    96.801
 C     17  16   9   1.679980   116.126   265.409
 H     18  17  16   1.158381   109.012   213.948
 H     18  17  16   1.156741   109.502    94.134
 H     18  17  16   1.156977   109.695   333.694
 H     17  16   9   1.153092   107.784    26.604
 H     17  16   9   1.154013   107.668   144.257
 H     16   9   8   1.159305   108.532   217.849
 H     16   9   8   1.158309   108.493   335.051
 C     21  18  17  44.649747   124.812   246.098
 C     26  21  18   1.395671   128.804    84.503
 C     27  26  21   1.429788   114.101   139.303
 C     28  27  26   1.398327   113.693     0.000
 S     26  21  18   1.658049   113.712   221.161
 H     27  26  21   1.139291   122.294   337.322
 C     28  27  26   1.623954   121.484   179.878
 C     32  28  27   1.717709   114.455   308.142
 C     33  32  28   1.714742   133.618   177.191
 H     34  33  32   1.156100   106.338    22.682
 H     34  33  32   1.156519   106.614   138.593
 H     33  32  28   1.129845   103.209    54.187
 H     33  32  28   1.161240   103.003   300.252
 H     32  28  27   1.161736   110.550   187.980
 H     32  28  27   1.160690   109.804    68.448
 C     34  33  32   1.635202   117.699   260.761
 C     41  34  33   1.702882   115.686   279.535
 C     42  41  34   1.684534   119.971   273.455
 H     43  42  41   1.158499   109.070   202.078
 H     43  42  41   1.157634   109.094    82.746
 H     43  42  41   1.155547   109.834   322.298
 H     42  41  34   1.154921   106.532   152.226
 H     42  41  34   1.146290   107.075    34.932
 H     41  34  33   1.156689   109.070   159.456
 H     41  34  33   1.155326   109.400    40.538
 H      1   2   3   1.060002   127.260   180.000
 H      4   3   2   1.060000   127.206   179.999
 H     26  21  18   1.059991    31.827   344.271
 H     29  28  27   1.059996   127.206   180.000

---------------------------
INTERNAL COORDINATES (A.U.)
---------------------------
 C      0   0   0   0.000000     0.000     0.000
 C      1   0   0   2.637443     0.000     0.000
 C      2   1   0   2.701889   114.102     0.000
 C      3   2   1   2.642456   113.693     0.000
 S      1   2   3   3.133229   105.480     0.000
 H      2   1   3   2.158354   124.128   180.572
 C      3   2   1   3.067313   118.767   180.238
 C      7   3   2   3.224092   122.978   223.456
 C      8   7   3   3.223327   117.317   179.514
 H      9   8   7   2.189755   105.739    31.811
 H      9   8   7   2.193069   105.591   145.982
 H      8   7   3   2.170167   108.076   297.606
 H      8   7   3   2.171000   107.983    57.042
 H      7   3   2   2.213875   107.962   101.894
 H      7   3   2   2.205990   108.748   345.746
 C      9   8   7   3.086768   121.486   268.469
 C     16   9   8   3.200002   118.328    96.801
 C     17  16   9   3.174703   116.126   265.409
 H     18  17  16   2.189022   109.012   213.948
 H     18  17  16   2.185923   109.502    94.134
 H     18  17  16   2.186369   109.695   333.694
 H     17  16   9   2.179029   107.784    26.604
 H     17  16   9   2.180768   107.668   144.257
 H     16   9   8   2.190770   108.532   217.849
 H     16   9   8   2.188887   108.493   335.051
 C     21  18  17  84.375795   124.812   246.098
 C     26  21  18   2.637435   128.804    84.503
 C     27  26  21   2.701908   114.101   139.303
 C     28  27  26   2.642454   113.693     0.000
 S     26  21  18   3.133258   113.712   221.161
 H     27  26  21   2.152948   122.294   337.322
 C     28  27  26   3.068829   121.484   179.878
 C     32  28  27   3.246000   114.455   308.142
 C     33  32  28   3.240393   133.618   177.191
 H     34  33  32   2.184712   106.338    22.682
 H     34  33  32   2.185505   106.614   138.593
 H     33  32  28   2.135097   103.209    54.187
 H     33  32  28   2.194426   103.003   300.252
 H     32  28  27   2.195362   110.550   187.980
 H     32  28  27   2.193387   109.804    68.448
 C     34  33  32   3.090084   117.699   260.761
 C     41  34  33   3.217980   115.686   279.535
 C     42  41  34   3.183309   119.971   273.455
 H     43  42  41   2.189246   109.070   202.078
 H     43  42  41   2.187611   109.094    82.746
 H     43  42  41   2.183668   109.834   322.298
 H     42  41  34   2.182484   106.532   152.226
 H     42  41  34   2.166174   107.075    34.932
 H     41  34  33   2.185825   109.070   159.456
 H     41  34  33   2.183250   109.400    40.538
 H      1   2   3   2.003114   127.260   180.000
 H      4   3   2   2.003110   127.206   179.999
 H     26  21  18   2.003093    31.827   344.271
 H     29  28  27   2.003102   127.206   180.000

----------------------------
SLATER BASIS SET DIM= 120
----------------------------
  0 C     2 shells
 l=0 nsto= 1
    2       1.625000000000        1.000000000000
 l=1 nsto= 1
    2       1.625000000000        1.000000000000
  1 C     2 shells
 l=0 nsto= 1
    2       1.625000000000        1.000000000000
 l=1 nsto= 1
    2       1.625000000000        1.000000000000
  2 C     2 shells
 l=0 nsto= 1
    2       1.625000000000        1.000000000000
 l=1 nsto= 1
    2       1.625000000000        1.000000000000
  3 C     2 shells
 l=0 nsto= 1
    2       1.625000000000        1.000000000000
 l=1 nsto= 1
    2       1.625000000000        1.000000000000
  4 S     2 shells
 l=0 nsto= 1
    3       1.925000000000        1.000000000000
 l=1 nsto= 1
    3       1.925000000000        1.000000000000
  5 H     1 shells
 l=0 nsto= 1
    1       1.200000000000        1.000000000000
  6 C     2 shells
 l=0 nsto= 1
    2       1.625000000000        1.000000000000
 l=1 nsto= 1
    2       1.625000000000        1.000000000000
  7 C     2 shells
 l=0 nsto= 1
    2       1.625000000000        1.000000000000
 l=1 nsto= 1
    2       1.625000000000        1.000000000000
  8 C     2 shells
 l=0 nsto= 1
    2       1.625000000000        1.000000000000
 l=1 nsto= 1
    2       1.625000000000        1.000000000000
  9 H     1 shells
 l=0 nsto= 1
    1       1.200000000000        1.000000000000
 10 H     1 shells
 l=0 nsto= 1
    1       1.200000000000        1.000000000000
 11 H     1 shells
 l=0 nsto= 1
    1       1.200000000000        1.000000000000
 12 H     1 shells
 l=0 nsto= 1
    1       1.200000000000        1.000000000000
 13 H     1 shells
 l=0 nsto= 1
    1       1.200000000000        1.000000000000
 14 H     1 shells
 l=0 nsto= 1
    1       1.200000000000        1.000000000000
 15 C     2 shells
 l=0 nsto= 1
    2       1.625000000000        1.000000000000
 l=1 nsto= 1
    2       1.625000000000        1.000000000000
 16 C     2 shells
 l=0 nsto= 1
    2       1.625000000000        1.000000000000
 l=1 nsto= 1
    2       1.625000000000        1.000000000000
 17 C     2 shells
 l=0 nsto= 1
    2       1.625000000000        1.000000000000
 l=1 nsto= 1
    2       1.625000000000        1.000000000000
 18 H     1 shells
 l=0 nsto= 1
    1       1.200000000000        1.000000000000
 19 H     1 shells
 l=0 nsto= 1
    1       1.200000000000        1.000000000000
 20 H     1 shells
 l=0 nsto= 1
    1       1.200000000000        1.000000000000
 21 H     1 shells
 l=0 nsto= 1
    1       1.200000000000        1.000000000000
 22 H     1 shells
 l=0 nsto= 1
    1       1.200000000000        1.000000000000
 23 H     1 shells
 l=0 nsto= 1
    1       1.200000000000        1.000000000000
 24 H     1 shells
 l=0 nsto= 1
    1       1.200000000000        1.000000000000
 25 C     2 shells
 l=0 nsto= 1
    2       1.625000000000        1.000000000000
 l=1 nsto= 1
    2       1.625000000000        1.000000000000
 26 C     2 shells
 l=0 nsto= 1
    2       1.625000000000        1.000000000000
 l=1 nsto= 1
    2       1.625000000000        1.000000000000
 27 C     2 shells
 l=0 nsto= 1
    2       1.625000000000        1.000000000000
 l=1 nsto= 1
    2       1.625000000000        1.000000000000
 28 C     2 shells
 l=0 nsto= 1
    2       1.625000000000        1.000000000000
 l=1 nsto= 1
    2       1.625000000000        1.000000000000
 29 S     2 shells
 l=0 nsto= 1
    3       1.925000000000        1.000000000000
 l=1 nsto= 1
    3       1.925000000000        1.000000000000
 30 H     1 shells
 l=0 nsto= 1
    1       1.200000000000        1.000000000000
 31 C     2 shells
 l=0 nsto= 1
    2       1.625000000000        1.000000000000
 l=1 nsto= 1
    2       1.625000000000        1.000000000000
 32 C     2 shells
 l=0 nsto= 1
    2       1.625000000000        1.000000000000
 l=1 nsto= 1
    2       1.625000000000        1.000000000000
 33 C     2 shells
 l=0 nsto= 1
    2       1.625000000000        1.000000000000
 l=1 nsto= 1
    2       1.625000000000        1.000000000000
 34 H     1 shells
 l=0 nsto= 1
    1       1.200000000000        1.000000000000
 35 H     1 shells
 l=0 nsto= 1
    1       1.200000000000        1.000000000000
 36 H     1 shells
 l=0 nsto= 1
    1       1.200000000000        1.000000000000
 37 H     1 shells
 l=0 nsto= 1
    1       1.200000000000        1.000000000000
 38 H     1 shells
 l=0 nsto= 1
    1       1.200000000000        1.000000000000
 39 H     1 shells
 l=0 nsto= 1
    1       1.200000000000        1.000000000000
 40 C     2 shells
 l=0 nsto= 1
    2       1.625000000000        1.000000000000
 l=1 nsto= 1
    2       1.625000000000        1.000000000000
 41 C     2 shells
 l=0 nsto= 1
    2       1.625000000000        1.000000000000
 l=1 nsto= 1
    2       1.625000000000        1.000000000000
 42 C     2 shells
 l=0 nsto= 1
    2       1.625000000000        1.000000000000
 l=1 nsto= 1
    2       1.625000000000        1.000000000000
 43 H     1 shells
 l=0 nsto= 1
    1       1.200000000000        1.000000000000
 44 H     1 shells
 l=0 nsto= 1
    1       1.200000000000        1.000000000000
 45 H     1 shells
 l=0 nsto= 1
    1       1.200000000000        1.000000000000
 46 H     1 shells
 l=0 nsto= 1
    1       1.200000000000        1.000000000000
 47 H     1 shells
 l=0 nsto= 1
    1       1.200000000000        1.000000000000
 48 H     1 shells
 l=0 nsto= 1
    1       1.200000000000        1.000000000000
 49 H     1 shells
 l=0 nsto= 1
    1       1.200000000000        1.000000000000
 50 H     1 shells
 l=0 nsto= 1
    1       1.200000000000        1.000000000000
 51 H     1 shells
 l=0 nsto= 1
    1       1.200000000000        1.000000000000
 52 H     1 shells
 l=0 nsto= 1
    1       1.200000000000        1.000000000000
 53 H     1 shells
 l=0 nsto= 1
    1       1.200000000000        1.000000000000
------------------------------------------------------------------------------
                           ORCA NDO INTEGRAL CALCULATION
------------------------------------------------------------------------------

--------------
NDO PARAMETERS
--------------

Gamma integral treatment              ... Mataga-Nishimoto
Nuclear repulsuion treatment          ... Direct (ZA*ZB/RAB)
Interaction factors:
s-s (sigma) =    1.0000
s-p (sigma) =    1.0000
s-d (sigma) =    1.0000
p-p (sigma) =    1.2670  p-p(pi) =    0.5850
p-d (sigma) =    1.0000  p-d(pi) =    1.0000
d-d (sigma) =    1.0000  d-d(pi) =    1.0000 d-d (delta) =    1.0000

fGamma parameter for Mataga-Nishimoto gamma integrals:    1.2000

--------------------------
Parameters for Element H :
--------------------------
 One-electron parameters (in eV)
  U(s)  =   -13.060000 Beta(s) =    12.000000 Neff(s) =     1.000000
 One-center electron repulsion parameters (in eV)
  G(s,s)=    12.850000
--------------------------
Parameters for Element C :
--------------------------
 One-electron parameters (in eV)
  U(s)  =   -50.870766 Beta(s) =    17.000000 Neff(s) =     2.000000
  U(p)  =   -41.599980 Beta(p) =    17.000000 Neff(p) =     2.000000 
 One-center electron repulsion parameters (in eV)
  G(s,s)=    11.110000
  G(s,p)=    11.110000 G(p,p)  =    11.110000
 Slater-Condon parameters (in eV)
 F2(p,p)=     4.5098 G1(s,p)=    6.8977
--------------------------
Parameters for Element S :
--------------------------
 One-electron parameters (in eV)
  U(s)  =   -69.509597 Beta(s) =    15.000000 Neff(s) =     2.000000
  U(p)  =   -60.725746 Beta(p) =    15.000000 Neff(p) =     4.000000 
 One-center electron repulsion parameters (in eV)
  G(s,s)=    10.090000
  G(s,p)=    10.090000 G(p,p)  =    10.090000
 Slater-Condon parameters (in eV)
 F2(p,p)=     4.5377 G1(s,p)=    3.0756

 Number of atoms                    ....   54
 Number of basis functions          ....  120

 Overlap integrals                  .... done
 One electron matrix                .... done
 Nuclear repulsion                  .... done
 Integral list                      .... done
 Electron-electron repulsion        .... done
-------------------------------------------------------------------------------
                                 ORCA SCF
-------------------------------------------------------------------------------

------------
SCF SETTINGS
------------
Hamiltonian:
 ZDO-Hamiltonian        Method          .... INDO


General Settings:
 Integral files         IntName         .... /Users/mattyjones/GoogleDrive/Boise/Code/MorphCT/tests/output_EZ/donor_polymer/chromophores/input_orca/pair/00006-00025
 Hartree-Fock type      HFTyp           .... RHF
 Total Charge           Charge          ....    0
 Multiplicity           Mult            ....    1
 Number of Electrons    NEL             ....  124
 Basis Dimension        Dim             ....  120
 Nuclear Repulsion      ENuc            ....    627.2811016869 Eh

Convergence Acceleration:
 DIIS                   CNVDIIS         .... on
   Start iteration      DIISMaxIt       ....    12
   Startup error        DIISStart       ....  0.200000
   # of expansion vecs  DIISMaxEq       ....     5
   Bias factor          DIISBfac        ....   1.050
   Max. coefficient     DIISMaxC        ....  10.000
 Newton-Raphson         CNVNR           .... off
 SOSCF                  CNVSOSCF        .... on
   Start iteration      SOSCFMaxIt      ....   150
   Startup grad/error   SOSCFStart      ....  0.003300
 Level Shifting         CNVShift        .... on
   Level shift para.    LevelShift      ....    0.2500
   Turn off err/grad.   ShiftErr        ....    0.0010
 Zerner damping         CNVZerner       .... off
 Static damping         CNVDamp         .... on
   Fraction old density DampFac         ....    0.7000
   Max. Damping (<1)    DampMax         ....    0.9800
   Min. Damping (>=0)   DampMin         ....    0.0000
   Turn off err/grad.   DampErr         ....    0.1000
 Fernandez-Rico         CNVRico         .... off

SCF Procedure:
 Maximum # iterations   MaxIter         ....   125
 SCF integral mode      SCFMode         .... Conventional
 Integral Buffer length BufferLength    .... 1048576
 Integral index format  IndFormat       ....     0
 Integral value format  ValFormat       ....     0
 Integral Storage       Thresh          ....  1.000e-08 Eh

Convergence Tolerance:
 Convergence Check Mode ConvCheckMode   .... Total+1el-Energy
 Energy Change          TolE            ....  1.000e-06 Eh
 1-El. energy change                    ....  1.000e-03 Eh
 Orbital Gradient       TolG            ....  5.000e-05
 Orbital Rotation angle TolX            ....  5.000e-05
 DIIS Error             TolErr          ....  1.000e-06


Diagonalization of the overlap matrix:
Smallest eigenvalue                        ... 1.696e-01
Time for diagonalization                   ...    0.003 sec
Threshold for overlap eigenvalues          ... 1.000e-08
Number of eigenvalues below threshold      ... 0
Time for construction of square roots      ...    0.001 sec
Total time needed                          ...    0.004 sec

-------------------------------
INITIAL GUESS: EXTENDED HUECKEL
-------------------------------
EHT matrix was read from disk
EHT matrix was diagonalized
Initial density was built
                      ------------------
                      INITIAL GUESS DONE
                      ------------------

 InCore treatment chosen:
   Memory dedicated               ...    1024 MB
   Memory needed                  ...      0 MB
   Number of tiny    integrals    ...       0
   Number of small   integrals    ...       0
   Number of regular integrals    ...    7392

--------------
SCF ITERATIONS
--------------
ITER       Energy         Delta-E        Max-DP      RMS-DP      [F,P]     Damp
  0    -20.9396184990   0.000000000000 0.03971975  0.00145190  0.1131326 0.7000
  1    -20.9815694659  -0.041950966909 0.03696834  0.00136681  0.0772117 0.7000
                               ***Turning on DIIS***
  2    -21.0125983787  -0.031028912783 0.09197826  0.00350469  0.0490026 0.0000
  3    -21.0937856806  -0.081187301941 0.01904639  0.00072384  0.0220428 0.0000
  4    -21.0783629370   0.015422743564 0.01108209  0.00049668  0.0067048 0.0000
  5    -21.0958180797  -0.017455142696 0.00727832  0.00033605  0.0037592 0.0000
  6    -21.0980963970  -0.002278317254 0.00474035  0.00023896  0.0019178 0.0000
                      *** Initiating the SOSCF procedure ***
                           *** Shutting down DIIS ***
                      *** Re-Reading the Fockian *** 
                      *** Removing any level shift *** 
ITER      Energy       Delta-E        Grad      Rot      Max-DP    RMS-DP
  7    -21.09413784   0.0039585611  0.003036  0.003036  0.004586  0.000225
  8    -21.09216849   0.0019693506  0.000261  0.000686  0.000499  0.000023
  9    -21.09217012  -0.0000016379  0.000136  0.000599  0.000491  0.000020
                 **** Energy Check signals convergence ****
              ***Rediagonalizing the Fockian in SOSCF/NRSCF***

               *****************************************************
               *                     SUCCESS                       *
               *           SCF CONVERGED AFTER  10 CYCLES          *
               *****************************************************


----------------
TOTAL SCF ENERGY
----------------

Total Energy       :          -21.09217074 Eh            -573.94714 eV

Components:
Nuclear Repulsion  :          627.28110169 Eh           17069.18656 eV
Electronic Energy  :         -648.37327242 Eh          -17643.13370 eV

One Electron Energy:        -1206.37955080 Eh          -32827.25648 eV
Two Electron Energy:          558.00627838 Eh           15184.12278 eV


---------------
SCF CONVERGENCE
---------------

  Last Energy change         ...   -6.1490e-07  Tolerance :   1.0000e-06
  Last MAX-Density change    ...    4.0900e-05  Tolerance :   1.0000e-05
  Last RMS-Density change    ...    1.8384e-06  Tolerance :   1.0000e-06
  Last Orbital Gradient      ...    1.6478e-05  Tolerance :   5.0000e-05
  Last Orbital Rotation      ...    3.4284e-05  Tolerance :   5.0000e-05

             **** THE GBW FILE WAS UPDATED (/Users/mattyjones/GoogleDrive/Boise/Code/MorphCT/tests/output_EZ/donor_polymer/chromophores/input_orca/pair/00006-00025.gbw) ****
             **** DENSITY FILE WAS UPDATED (/Users/mattyjones/GoogleDrive/Boise/Code/MorphCT/tests/output_EZ/donor_polymer/chromophores/input_orca/pair/00006-00025.scfp.tmp) ****
             **** ENERGY FILE WAS UPDATED (/Users/mattyjones/GoogleDrive/Boise/Code/MorphCT/tests/output_EZ/donor_polymer/chromophores/input_orca/pair/00006-00025.en.tmp) ****
----------------
ORBITAL ENERGIES
----------------

  NO   OCC          E(Eh)            E(eV) 
   0   2.0000      -1.558008       -42.3956 
   1   2.0000      -1.555767       -42.3346 
   2   2.0000      -1.394544       -37.9475 
   3   2.0000      -1.390175       -37.8286 
   4   2.0000      -1.283252       -34.9191 
   5   2.0000      -1.283201       -34.9177 
   6   2.0000      -1.186369       -32.2827 
   7   2.0000      -1.182478       -32.1769 
   8   2.0000      -1.116166       -30.3724 
   9   2.0000      -1.110315       -30.2132 
  10   2.0000      -1.059827       -28.8393 
  11   2.0000      -1.036833       -28.2137 
  12   2.0000      -0.959951       -26.1216 
  13   2.0000      -0.953556       -25.9476 
  14   2.0000      -0.919273       -25.0147 
  15   2.0000      -0.886513       -24.1232 
  16   2.0000      -0.857529       -23.3345 
  17   2.0000      -0.844581       -22.9822 
  18   2.0000      -0.838578       -22.8189 
  19   2.0000      -0.825444       -22.4615 
  20   2.0000      -0.788167       -21.4471 
  21   2.0000      -0.770721       -20.9724 
  22   2.0000      -0.727548       -19.7976 
  23   2.0000      -0.721189       -19.6245 
  24   2.0000      -0.699923       -19.0459 
  25   2.0000      -0.696861       -18.9626 
  26   2.0000      -0.684044       -18.6138 
  27   2.0000      -0.661969       -18.0131 
  28   2.0000      -0.645504       -17.5650 
  29   2.0000      -0.633861       -17.2482 
  30   2.0000      -0.623576       -16.9684 
  31   2.0000      -0.619737       -16.8639 
  32   2.0000      -0.586846       -15.9689 
  33   2.0000      -0.586761       -15.9666 
  34   2.0000      -0.578636       -15.7455 
  35   2.0000      -0.575020       -15.6471 
  36   2.0000      -0.573586       -15.6081 
  37   2.0000      -0.567543       -15.4436 
  38   2.0000      -0.563429       -15.3317 
  39   2.0000      -0.553460       -15.0604 
  40   2.0000      -0.533627       -14.5207 
  41   2.0000      -0.524560       -14.2740 
  42   2.0000      -0.519909       -14.1475 
  43   2.0000      -0.511961       -13.9312 
  44   2.0000      -0.509465       -13.8633 
  45   2.0000      -0.506764       -13.7897 
  46   2.0000      -0.494636       -13.4597 
  47   2.0000      -0.494310       -13.4509 
  48   2.0000      -0.488390       -13.2898 
  49   2.0000      -0.488371       -13.2892 
  50   2.0000      -0.483217       -13.1490 
  51   2.0000      -0.478757       -13.0276 
  52   2.0000      -0.469609       -12.7787 
  53   2.0000      -0.468771       -12.7559 
  54   2.0000      -0.462426       -12.5832 
  55   2.0000      -0.449861       -12.2413 
  56   2.0000      -0.438297       -11.9267 
  57   2.0000      -0.435226       -11.8431 
  58   2.0000      -0.357657        -9.7323 
  59   2.0000      -0.356032        -9.6881 
  60   2.0000      -0.305676        -8.3179 
  61   2.0000      -0.305169        -8.3041 
  62   0.0000       0.006445         0.1754 
  63   0.0000       0.007285         0.1982 
  64   0.0000       0.061902         1.6844 
  65   0.0000       0.066011         1.7963 
  66   0.0000       0.070163         1.9092 
  67   0.0000       0.075243         2.0475 
  68   0.0000       0.085495         2.3264 
  69   0.0000       0.086493         2.3536 
  70   0.0000       0.103435         2.8146 
  71   0.0000       0.104314         2.8385 
  72   0.0000       0.106929         2.9097 
  73   0.0000       0.107336         2.9208 
  74   0.0000       0.125297         3.4095 
  75   0.0000       0.125486         3.4146 
  76   0.0000       0.142393         3.8747 
  77   0.0000       0.143093         3.8938 
  78   0.0000       0.158865         4.3229 
  79   0.0000       0.160841         4.3767 
  80   0.0000       0.166052         4.5185 
  81   0.0000       0.166623         4.5340 
  82   0.0000       0.168180         4.5764 
  83   0.0000       0.173007         4.7078 
  84   0.0000       0.203580         5.5397 
  85   0.0000       0.204336         5.5603 
  86   0.0000       0.231439         6.2978 
  87   0.0000       0.233326         6.3491 
  88   0.0000       0.233785         6.3616 
  89   0.0000       0.235527         6.4090 
  90   0.0000       0.236312         6.4304 
  91   0.0000       0.236711         6.4412 
  92   0.0000       0.238419         6.4877 
  93   0.0000       0.239531         6.5180 
  94   0.0000       0.240036         6.5317 
  95   0.0000       0.242050         6.5865 
  96   0.0000       0.242222         6.5912 
  97   0.0000       0.244169         6.6442 
  98   0.0000       0.244783         6.6609 
  99   0.0000       0.245003         6.6669 
 100   0.0000       0.248202         6.7539 
 101   0.0000       0.250819         6.8251 
 102   0.0000       0.253223         6.8905 
 103   0.0000       0.257669         7.0115 
 104   0.0000       0.266189         7.2434 
 105   0.0000       0.266378         7.2485 
 106   0.0000       0.276850         7.5335 
 107   0.0000       0.282688         7.6923 
 108   0.0000       0.303284         8.2528 
 109   0.0000       0.309433         8.4201 
 110   0.0000       0.310092         8.4380 
 111   0.0000       0.312169         8.4946 
 112   0.0000       0.339872         9.2484 
 113   0.0000       0.342019         9.3068 
 114   0.0000       0.354843         9.6558 
 115   0.0000       0.355002         9.6601 
 116   0.0000       0.412303        11.2193 
 117   0.0000       0.414383        11.2759 
 118   0.0000       0.427588        11.6353 
 119   0.0000       0.428912        11.6713 
-------
TIMINGS
-------

Total SCF time: 0 days 0 hours 0 min 0 sec 

Total time                  ....       0.210 sec
Sum of individual times     ....       0.099 sec  ( 47.3%)

Fock matrix formation       ....       0.048 sec  ( 23.1%)
Diagonalization             ....       0.025 sec  ( 12.1%)
Density matrix formation    ....       0.005 sec  (  2.3%)
Population analysis         ....       0.000 sec  (  0.0%)
Initial guess               ....       0.003 sec  (  1.5%)
Orbital Transformation      ....       0.000 sec  (  0.0%)
Orbital Orthonormalization  ....       0.000 sec  (  0.0%)
DIIS solution               ....       0.013 sec  (  6.0%)
SOSCF solution              ....       0.005 sec  (  2.3%)

-------------------------   --------------------
FINAL SINGLE POINT ENERGY       -21.092170738065
-------------------------   --------------------


                            ***************************************
                            *     ORCA property calculations      *
                            ***************************************

                                    ---------------------
                                    Active property flags
                                    ---------------------
   (+) Dipole Moment


------------------------------------------------------------------------------
                       ORCA ELECTRIC PROPERTIES CALCULATION
------------------------------------------------------------------------------

Dipole Moment Calculation                       ... on
Quadrupole Moment Calculation                   ... off
Polarizability Calculation                      ... off
GBWName                                         ... /Users/mattyjones/GoogleDrive/Boise/Code/MorphCT/tests/output_EZ/donor_polymer/chromophores/input_orca/pair/00006-00025.gbw
Electron density file                           ... /Users/mattyjones/GoogleDrive/Boise/Code/MorphCT/tests/output_EZ/donor_polymer/chromophores/input_orca/pair/00006-00025.scfp.tmp

-------------
DIPOLE MOMENT
-------------
                                X             Y             Z
Electronic contribution:    175.97522     207.32953     -26.02004
Nuclear contribution   :    -95.39018    -111.37534      14.11652
                        -----------------------------------------
Total Dipole Moment    :     80.58504      95.95418     -11.90352
                        -----------------------------------------
Magnitude (a.u.)       :    125.86837
Magnitude (Debye)      :    319.93198


Timings for individual modules:

Sum of individual times         ...        0.314 sec (=   0.005 min)
STO integral calculation        ...        0.059 sec (=   0.001 min)  18.7 %
SCF iterations                  ...        0.255 sec (=   0.004 min)  81.3 %
                             ****ORCA TERMINATED NORMALLY****
TOTAL RUN TIME: 0 days 0 hours 0 minutes 0 seconds 617 msec

