
                                 *****************
                                 * O   R   C   A *
                                 *****************

           --- An Ab Initio, DFT and Semiempirical electronic structure package ---

                  #######################################################
                  #                        -***-                        #
                  #  Department of molecular theory and spectroscopy    #
                  #              Directorship: Frank Neese              #
                  # Max Planck Institute for Chemical Energy Conversion #
                  #                  D-45470 Muelheim/Ruhr              #
                  #                       Germany                       #
                  #                                                     #
                  #                  All rights reserved                #
                  #                        -***-                        #
                  #######################################################


                         Program Version 3.0.3 - RELEASE   -


 With contributions from (in alphabetic order):
   Ute Becker             : Parallelization
   Dmytro Bykov           : SCF Hessian
   Dmitry Ganyushin       : Spin-Orbit,Spin-Spin,Magnetic field MRCI
   Andreas Hansen         : Spin unrestricted coupled pair/coupled cluster methods
   Dimitrios Liakos       : Extrapolation schemes; parallel MDCI
   Robert Izsak           : Overlap fitted RIJCOSX, COSX-SCS-MP3
   Christian Kollmar      : KDIIS, OOCD, Brueckner-CCSD(T), CCSD density
   Simone Kossmann        : Meta GGA functionals, TD-DFT gradient, OOMP2, MP2 Hessian
   Taras Petrenko         : DFT Hessian,TD-DFT gradient, ASA and ECA modules, normal mode analysis, Resonance Raman, ABS, FL, XAS/XES, NRVS
   Christoph Reimann      : Effective Core Potentials
   Michael Roemelt        : Restricted open shell CIS
   Christoph Riplinger    : Improved optimizer, TS searches, QM/MM, DLPNO-CCSD
   Barbara Sandhoefer     : DKH picture change effects
   Igor Schapiro          : Molecular dynamics
   Kantharuban Sivalingam : CASSCF convergence, NEVPT2
   Boris Wezisla          : Elementary symmetry handling
   Frank Wennmohs         : Technical directorship


 We gratefully acknowledge several colleagues who have allowed us to
 interface, adapt or use parts of their codes:
   Stefan Grimme, W. Hujo, H. Kruse, T. Risthaus : VdW corrections, initial TS optimization,
                                                   DFT functionals, gCP
   Ed Valeev                                     : LibInt (2-el integral package), F12 methods
   Garnet Chan, S. Sharma, R. Olivares           : DMRG
   Ulf Ekstrom                                   : XCFun DFT Library
   Mihaly Kallay                                 : mrcc  (arbitrary order and MRCC methods)
   Andreas Klamt, Michael Diedenhofen            : otool_cosmo (COSMO solvation model)
   Frank Weinhold                                : gennbo (NPA and NBO analysis)
   Christopher J. Cramer and Donald G. Truhlar   : smd solvation model


 Your calculation uses the libint2 library for the computation of 2-el integrals
 For citations please refer to: http://libint.valeyev.net

 This ORCA versions uses:
   CBLAS   interface :  Fast vector & matrix operations
   LAPACKE interface :  Fast linear algebra routines
   SCALAPACK package :  Parallel linear algebra routines


leaving
================================================================================
                                        WARNINGS
                       Please study these warnings very carefully!
================================================================================
Now building the actual basis set

WARNING: Direct SCF is incompatible with Method<>HF and Method<>DFT
  ===> : conventional SCF is chosen

WARNING: The NDO methods need Guess=HUECKEL or Guess=HCORE or Guess=MOREAD
  ===> : Guess is set to Hueckel

WARNING: The NDO methods need %rel::SOCType==1
  ===> : %rel::SOCType is set to 1

WARNING: The NDO methods cannot have frozencore=1
  ===> : %method FrozenCore=0 end


INFO   : the flag for use of LIBINT has been found!

================================================================================
                                       INPUT FILE
================================================================================
NAME = /Users/mattyjones/GoogleDrive/Boise/Code/MorphCT/tests/output_EZ/donor_polymer/chromophores/input_orca/pair/00003-00029.inp
|  1> # ================================================================
|  2> # Orca input file made by Matty Jones
|  3> # ================================================================
|  4> ! ZINDO/S 
|  5> ! NOPOP
|  6> ! NOMOPRINT
|  7> * xyz 0   1
|  8>  C  -16.90482  -5.83242  26.99620
|  9>  C  -16.00214  -5.07998  27.74913
| 10>  C  -15.14188  -5.86192  28.58148
| 11>  C  -15.36642  -7.23875  28.48531
| 12>  S  -16.60015  -7.41372  27.39090
| 13>  H  -15.40546  -4.11302  27.43214
| 14>  C  -13.93432  -5.48797  29.61621
| 15>  C  -12.49897  -4.64768  29.22573
| 16>  C  -12.24564  -3.00107  29.43322
| 17>  H  -11.70298  -2.59633  28.49591
| 18>  H  -13.26800  -2.47645  29.53540
| 19>  H  -11.66526  -5.18949  29.82074
| 20>  H  -12.32589  -4.85805  28.09999
| 21>  H  -14.40300  -4.82470  30.45560
| 22>  H  -13.54813  -6.45399  30.13328
| 23>  C  -11.32884  -2.71971  30.75778
| 24>  C  -12.16050  -2.88506  32.21503
| 25>  C  -13.05365  -1.52451  32.62411
| 26>  H  -12.66769  -0.60805  32.03216
| 27>  H  -12.95508  -1.32335  33.75911
| 28>  H  -14.16534  -1.71397  32.35901
| 29>  H  -12.86477  -3.79291  32.14105
| 30>  H  -11.38515  -3.07070  33.04870
| 31>  H  -10.43778  -3.45807  30.77867
| 32>  H  -10.90512  -1.64407  30.70929
| 33>  C  17.75743  4.19729  -31.13684
| 34>  C  16.42592  4.47109  -30.82057
| 35>  C  16.20498  4.78081  -29.44234
| 36>  C  17.36790  4.75143  -28.66639
| 37>  S  18.59107  4.34944  -29.71171
| 38>  H  15.58138  4.48460  -31.58909
| 39>  C  14.82998  5.15953  -28.63911
| 40>  C  13.28457  4.42619  -28.30193
| 41>  C  11.68047  4.24003  -28.88980
| 42>  H  10.99064  4.44740  -27.97756
| 43>  H  11.52787  5.09923  -29.64594
| 44>  H  13.61160  3.32109  -28.16093
| 45>  H  13.07079  4.87884  -27.24869
| 46>  H  14.45809  6.15414  -29.14475
| 47>  H  15.16286  5.45612  -27.55437
| 48>  C  11.22164  2.81974  -29.53886
| 49>  C  10.89791  2.73038  -31.18971
| 50>  C  10.82824  4.20668  -31.98448
| 51>  H  11.87124  4.70586  -31.96618
| 52>  H  10.05420  4.88956  -31.45958
| 53>  H  10.50051  4.03085  -33.08096
| 54>  H  11.72616  2.09674  -31.68212
| 55>  H  9.88145  2.20138  -31.32703
| 56>  H  12.04302  2.03024  -29.32075
| 57>  H  10.25126  2.47537  -29.00026
| 58>  H  -17.63187  -5.46949  26.31555
| 59>  H  -14.85514  -8.00929  29.00344
| 60>  H  18.15245  3.94522  -32.08764
| 61>  H  17.45038  4.94546  -27.62757
| 62> *
| 63> 
| 64>                          ****END OF INPUT****
================================================================================

                       ****************************
                       * Single Point Calculation *
                       ****************************

---------------------------------
CARTESIAN COORDINATES (ANGSTROEM)
---------------------------------
  C    -16.904820   -5.832420   26.996200
  C    -16.002140   -5.079980   27.749130
  C    -15.141880   -5.861920   28.581480
  C    -15.366420   -7.238750   28.485310
  S    -16.600150   -7.413720   27.390900
  H    -15.405460   -4.113020   27.432140
  C    -13.934320   -5.487970   29.616210
  C    -12.498970   -4.647680   29.225730
  C    -12.245640   -3.001070   29.433220
  H    -11.702980   -2.596330   28.495910
  H    -13.268000   -2.476450   29.535400
  H    -11.665260   -5.189490   29.820740
  H    -12.325890   -4.858050   28.099990
  H    -14.403000   -4.824700   30.455600
  H    -13.548130   -6.453990   30.133280
  C    -11.328840   -2.719710   30.757780
  C    -12.160500   -2.885060   32.215030
  C    -13.053650   -1.524510   32.624110
  H    -12.667690   -0.608050   32.032160
  H    -12.955080   -1.323350   33.759110
  H    -14.165340   -1.713970   32.359010
  H    -12.864770   -3.792910   32.141050
  H    -11.385150   -3.070700   33.048700
  H    -10.437780   -3.458070   30.778670
  H    -10.905120   -1.644070   30.709290
  C     17.757430    4.197290  -31.136840
  C     16.425920    4.471090  -30.820570
  C     16.204980    4.780810  -29.442340
  C     17.367900    4.751430  -28.666390
  S     18.591070    4.349440  -29.711710
  H     15.581380    4.484600  -31.589090
  C     14.829980    5.159530  -28.639110
  C     13.284570    4.426190  -28.301930
  C     11.680470    4.240030  -28.889800
  H     10.990640    4.447400  -27.977560
  H     11.527870    5.099230  -29.645940
  H     13.611600    3.321090  -28.160930
  H     13.070790    4.878840  -27.248690
  H     14.458090    6.154140  -29.144750
  H     15.162860    5.456120  -27.554370
  C     11.221640    2.819740  -29.538860
  C     10.897910    2.730380  -31.189710
  C     10.828240    4.206680  -31.984480
  H     11.871240    4.705860  -31.966180
  H     10.054200    4.889560  -31.459580
  H     10.500510    4.030850  -33.080960
  H     11.726160    2.096740  -31.682120
  H      9.881450    2.201380  -31.327030
  H     12.043020    2.030240  -29.320750
  H     10.251260    2.475370  -29.000260
  H    -17.631870   -5.469490   26.315550
  H    -14.855140   -8.009290   29.003440
  H     18.152450    3.945220  -32.087640
  H     17.450380    4.945460  -27.627570

----------------------------
CARTESIAN COORDINATES (A.U.)
----------------------------
  NO LB      ZA    FRAG    MASS        X           Y           Z
   0 C     4.0000    0    12.011        -31.945480143234654        -11.021676498004986         51.015424656564896
   1 C     4.0000    0    12.011        -30.239662156666618         -9.599770965797280         52.438256154578227
   2 C     4.0000    0    12.011        -28.614006352699523        -11.077423418955663         54.011169702147576
   3 C     4.0000    0    12.011        -29.038325458810199        -13.679255051922460         53.829434739848367
   4 S     6.0000    0    32.060        -31.369737282012863        -14.009900433574661         51.761299561623609
   5 H     1.0000    0     1.008        -29.112100367078487         -7.772481383340786         51.839231867386523
   6 C     4.0000    0    12.011        -26.332048662421574        -10.370760331175811         55.966526024699910
   7 C     4.0000    0    12.011        -23.619630256097707         -8.782842358103123         55.228625763926338
   8 C     4.0000    0    12.011        -23.140905934591437         -5.671200408727050         55.620725039453660
   9 H     1.0000    0     1.008        -22.115427150757728         -4.906352653283763         53.849465836867928
  10 H     1.0000    0     1.008        -25.072886344867168         -4.679812284349284         55.813817255817732
  11 H     1.0000    0     1.008        -22.044146680986220         -9.806714874722996         56.353031710870830
  12 H     1.0000    0     1.008        -23.292556456838614         -9.180384044896137         53.101285465925827
  13 H     1.0000    0     1.008        -27.217725506867790         -9.117361678329862         57.552743244252071
  14 H     1.0000    0     1.008        -25.602255326762528        -12.196273571066419         56.943646716766573
  15 C     4.0000    0    12.011        -21.408405015012431         -5.139507063686968         58.123780687400398
  16 C     4.0000    0    12.011        -22.980014651549382         -5.451973279930846         60.877584096057134
  17 C     4.0000    0    12.011        -24.667823548061147         -2.880906388424287         61.650633262921652
  18 H     1.0000    0     1.008        -23.938464849412902         -1.149047975730817         60.532009877946955
  19 H     1.0000    0     1.008        -24.481553243040530         -2.500769079324689         63.795472424922266
  20 H     1.0000    0     1.008        -26.768613193880064         -3.238933901757008         61.149666864819118
  21 H     1.0000    0     1.008        -24.310892075886102         -7.167561150611254         60.737782156669645
  22 H     1.0000    0     1.008        -21.514815493613536         -5.802782039431987         62.452992082123266
  23 H     1.0000    0     1.008        -19.724545646120561         -6.534805251929063         58.163257066338012
  24 H     1.0000    0     1.008        -20.607690257547318         -3.106842044995912         58.032147867166550
  25 C     4.0000    0    12.011         33.556679542277251          7.931728604646330        -58.840100275724588
  26 C     4.0000    0    12.011         31.040490297699769          8.449135620113969        -58.242436591349311
  27 C     4.0000    0    12.011         30.622974205671202          9.034421598312059        -55.637959341795025
  28 C     4.0000    0    12.011         32.820574521330904          8.978901444497453        -54.171626348178826
  29 S     6.0000    0    32.060         35.132030836559359          8.219250435922449        -56.146994870489394
  30 H     1.0000    0     1.008         29.444540988557911          8.474665820183246        -59.694728919790471
  31 C     4.0000    0    12.011         28.024600771529485          9.750098679750716        -54.120074619245457
  32 C     4.0000    0    12.011         25.104199106906243          8.364286916700905        -53.482896761409890
  33 C     4.0000    0    12.011         22.072889415483161          8.012495499610125        -54.593810063758177
  34 H     1.0000    0     1.008         20.769299636520266          8.404368008001375        -52.869926295349856
  35 H     1.0000    0     1.008         21.784517207446779          9.636148193875265        -56.022707582661390
  36 H     1.0000    0     1.008         25.722196244482507          6.275950566104529        -53.216445376526991
  37 H     1.0000    0     1.008         24.700213453996557          9.219671451220361        -51.492561608118670
  38 H     1.0000    0     1.008         27.321830519585511         11.629639189810131        -55.075595741601397
  39 H     1.0000    0     1.008         28.653652806989189         10.310572553810420        -52.070213092735713
  40 C     4.0000    0    12.011         21.205826373456077          5.328536368863110        -55.820355708241102
  41 C     4.0000    0    12.011         20.594065332121748          5.159670441535907        -58.940010096425006
  42 C     4.0000    0    12.011         20.462408112371453          7.949473133043852        -60.441907735881600
  43 H     1.0000    0     1.008         22.433392470051320          8.892786624574661        -60.407325747630836
  44 H     1.0000    0     1.008         18.999684495671048          9.239929315375996        -59.449990488186330
  45 H     1.0000    0     1.008         19.843088166501442          7.617202586916477        -62.513954647203562
  46 H     1.0000    0     1.008         22.159231002542025          3.962264374038045        -59.870530142029168
  47 H     1.0000    0     1.008         18.673234306036150          4.160005316691564        -59.199507289135070
  48 H     1.0000    0     1.008         22.758009625336314          3.836597586132282        -55.408187541171543
  49 H     1.0000    0     1.008         19.372073927621571          4.677771380124648        -54.802549212511117
  50 H     1.0000    0     1.008        -33.319405528902095        -10.335838192220947         49.729182563511401
  51 H     1.0000    0     1.008        -28.072146281058941        -15.135364627154141         54.808558541616989
  52 H     1.0000    0     1.008         34.303159159698829          7.455385338068800        -60.636851883856913
  53 H     1.0000    0     1.008         32.976439132856733          9.345565006262193        -52.208541045738755

--------------------------------
INTERNAL COORDINATES (ANGSTROEM)
--------------------------------
 C      0   0   0   0.000000     0.000     0.000
 C      1   0   0   1.395672     0.000     0.000
 C      2   1   0   1.429785   114.102     0.000
 C      3   2   1   1.398330   113.693     0.000
 S      1   2   3   1.658048   105.480     0.000
 H      2   1   3   1.179628   128.617   141.125
 C      3   2   1   1.633617   133.495   179.247
 C      7   3   2   1.708447   126.076   300.986
 C      8   7   3   1.678855   125.516    96.306
 H      9   8   7   1.156220   108.298   222.542
 H      9   8   7   1.153641   108.859   341.138
 H      8   7   3   1.158735   104.901   219.964
 H      8   7   3   1.158233   104.973   333.519
 H      7   3   2   1.167974   106.773    61.421
 H      7   3   2   1.161765   109.712   176.571
 C      9   8   7   1.635281   110.699   102.529
 C     16   9   8   1.685994   113.996   284.055
 C     17  16   9   1.678142   113.186   278.323
 H     18  17  16   1.157268   109.868   341.138
 H     18  17  16   1.156895   109.559   220.660
 H     18  17  16   1.158459   108.806   100.910
 H     17  16   9   1.151373   108.876    40.000
 H     17  16   9   1.153532   107.992   158.586
 H     16   9   8   1.157411   109.662    44.694
 H     16   9   8   1.157105   109.348   163.148
 C     10   9   8  66.859060   164.890     2.865
 C     26  10   9   1.395676    52.947    95.221
 C     27  26  10   1.429776   114.102    25.086
 C     28  27  26   1.398336   113.693     0.000
 S     26  10   9   1.658041    57.605   246.280
 H     27  26  10   1.141952   123.737   203.154
 C     28  27  26   1.636836   130.765   179.957
 C     32  28  27   1.743494   137.917    60.191
 C     33  32  28   1.718541   143.781   271.099
 H     34  33  32   1.162347   105.436   227.051
 H     34  33  32   1.154668   105.472   340.775
 H     33  32  28   1.161067   100.030    37.082
 H     33  32  28   1.166151   100.014   147.714
 H     32  28  27   1.176105   104.496   298.139
 H     32  28  27   1.172790   105.900   186.582
 C     34  33  32   1.627583   119.609   105.953
 C     41  34  33   1.684664   119.422   248.495
 C     42  41  34   1.678087   115.177   349.925
 H     43  42  41   1.156445   109.561    65.462
 H     43  42  41   1.158008   109.382   304.880
 H     43  42  41   1.157839   109.067   185.454
 H     42  41  34   1.153241   108.032   110.881
 H     42  41  34   1.154075   108.069   228.990
 H     41  34  33   1.159977   108.622    10.797
 H     41  34  33   1.162032   108.010   127.231
 H      1   2   3   1.060002   127.260   180.000
 H      4   3   2   1.059999   127.206   180.001
 H     26  10   9   1.060000   160.064   356.983
 H     29  28  27   1.059999   127.206   180.000

---------------------------
INTERNAL COORDINATES (A.U.)
---------------------------
 C      0   0   0   0.000000     0.000     0.000
 C      1   0   0   2.637438     0.000     0.000
 C      2   1   0   2.701901   114.102     0.000
 C      3   2   1   2.642461   113.693     0.000
 S      1   2   3   3.133256   105.480     0.000
 H      2   1   3   2.229173   128.617   141.125
 C      3   2   1   3.087090   133.495   179.247
 C      7   3   2   3.228497   126.076   300.986
 C      8   7   3   3.172575   125.516    96.306
 H      9   8   7   2.184939   108.298   222.542
 H      9   8   7   2.180065   108.859   341.138
 H      8   7   3   2.189692   104.901   219.964
 H      8   7   3   2.188742   104.973   333.519
 H      7   3   2   2.207151   106.773    61.421
 H      7   3   2   2.195418   109.712   176.571
 C      9   8   7   3.090234   110.699   102.529
 C     16   9   8   3.186067   113.996   284.055
 C     17  16   9   3.171228   113.186   278.323
 H     18  17  16   2.186919   109.868   341.138
 H     18  17  16   2.186215   109.559   220.660
 H     18  17  16   2.189171   108.806   100.910
 H     17  16   9   2.175781   108.876    40.000
 H     17  16   9   2.179859   107.992   158.586
 H     16   9   8   2.187189   109.662    44.694
 H     16   9   8   2.186611   109.348   163.148
 C     10   9   8 126.345313   164.890     2.865
 C     26  10   9   2.637446    52.947    95.221
 C     27  26  10   2.701885   114.102    25.086
 C     28  27  26   2.642473   113.693     0.000
 S     26  10   9   3.133244    57.605   246.280
 H     27  26  10   2.157976   123.737   203.154
 C     28  27  26   3.093172   130.765   179.957
 C     32  28  27   3.294725   137.917    60.191
 C     33  32  28   3.247572   143.781   271.099
 H     34  33  32   2.196517   105.436   227.051
 H     34  33  32   2.182007   105.472   340.775
 H     33  32  28   2.194098   100.030    37.082
 H     33  32  28   2.203706   100.014   147.714
 H     32  28  27   2.222516   104.496   298.139
 H     32  28  27   2.216251   105.900   186.582
 C     34  33  32   3.075687   119.609   105.953
 C     41  34  33   3.183553   119.422   248.495
 C     42  41  34   3.171124   115.177   349.925
 H     43  42  41   2.185364   109.561    65.462
 H     43  42  41   2.188318   109.382   304.880
 H     43  42  41   2.187999   109.067   185.454
 H     42  41  34   2.179310   108.032   110.881
 H     42  41  34   2.180885   108.069   228.990
 H     41  34  33   2.192039   108.622    10.797
 H     41  34  33   2.195922   108.010   127.231
 H      1   2   3   2.003114   127.260   180.000
 H      4   3   2   2.003108   127.206   180.001
 H     26  10   9   2.003110   160.064   356.983
 H     29  28  27   2.003108   127.206   180.000

----------------------------
SLATER BASIS SET DIM= 120
----------------------------
  0 C     2 shells
 l=0 nsto= 1
    2       1.625000000000        1.000000000000
 l=1 nsto= 1
    2       1.625000000000        1.000000000000
  1 C     2 shells
 l=0 nsto= 1
    2       1.625000000000        1.000000000000
 l=1 nsto= 1
    2       1.625000000000        1.000000000000
  2 C     2 shells
 l=0 nsto= 1
    2       1.625000000000        1.000000000000
 l=1 nsto= 1
    2       1.625000000000        1.000000000000
  3 C     2 shells
 l=0 nsto= 1
    2       1.625000000000        1.000000000000
 l=1 nsto= 1
    2       1.625000000000        1.000000000000
  4 S     2 shells
 l=0 nsto= 1
    3       1.925000000000        1.000000000000
 l=1 nsto= 1
    3       1.925000000000        1.000000000000
  5 H     1 shells
 l=0 nsto= 1
    1       1.200000000000        1.000000000000
  6 C     2 shells
 l=0 nsto= 1
    2       1.625000000000        1.000000000000
 l=1 nsto= 1
    2       1.625000000000        1.000000000000
  7 C     2 shells
 l=0 nsto= 1
    2       1.625000000000        1.000000000000
 l=1 nsto= 1
    2       1.625000000000        1.000000000000
  8 C     2 shells
 l=0 nsto= 1
    2       1.625000000000        1.000000000000
 l=1 nsto= 1
    2       1.625000000000        1.000000000000
  9 H     1 shells
 l=0 nsto= 1
    1       1.200000000000        1.000000000000
 10 H     1 shells
 l=0 nsto= 1
    1       1.200000000000        1.000000000000
 11 H     1 shells
 l=0 nsto= 1
    1       1.200000000000        1.000000000000
 12 H     1 shells
 l=0 nsto= 1
    1       1.200000000000        1.000000000000
 13 H     1 shells
 l=0 nsto= 1
    1       1.200000000000        1.000000000000
 14 H     1 shells
 l=0 nsto= 1
    1       1.200000000000        1.000000000000
 15 C     2 shells
 l=0 nsto= 1
    2       1.625000000000        1.000000000000
 l=1 nsto= 1
    2       1.625000000000        1.000000000000
 16 C     2 shells
 l=0 nsto= 1
    2       1.625000000000        1.000000000000
 l=1 nsto= 1
    2       1.625000000000        1.000000000000
 17 C     2 shells
 l=0 nsto= 1
    2       1.625000000000        1.000000000000
 l=1 nsto= 1
    2       1.625000000000        1.000000000000
 18 H     1 shells
 l=0 nsto= 1
    1       1.200000000000        1.000000000000
 19 H     1 shells
 l=0 nsto= 1
    1       1.200000000000        1.000000000000
 20 H     1 shells
 l=0 nsto= 1
    1       1.200000000000        1.000000000000
 21 H     1 shells
 l=0 nsto= 1
    1       1.200000000000        1.000000000000
 22 H     1 shells
 l=0 nsto= 1
    1       1.200000000000        1.000000000000
 23 H     1 shells
 l=0 nsto= 1
    1       1.200000000000        1.000000000000
 24 H     1 shells
 l=0 nsto= 1
    1       1.200000000000        1.000000000000
 25 C     2 shells
 l=0 nsto= 1
    2       1.625000000000        1.000000000000
 l=1 nsto= 1
    2       1.625000000000        1.000000000000
 26 C     2 shells
 l=0 nsto= 1
    2       1.625000000000        1.000000000000
 l=1 nsto= 1
    2       1.625000000000        1.000000000000
 27 C     2 shells
 l=0 nsto= 1
    2       1.625000000000        1.000000000000
 l=1 nsto= 1
    2       1.625000000000        1.000000000000
 28 C     2 shells
 l=0 nsto= 1
    2       1.625000000000        1.000000000000
 l=1 nsto= 1
    2       1.625000000000        1.000000000000
 29 S     2 shells
 l=0 nsto= 1
    3       1.925000000000        1.000000000000
 l=1 nsto= 1
    3       1.925000000000        1.000000000000
 30 H     1 shells
 l=0 nsto= 1
    1       1.200000000000        1.000000000000
 31 C     2 shells
 l=0 nsto= 1
    2       1.625000000000        1.000000000000
 l=1 nsto= 1
    2       1.625000000000        1.000000000000
 32 C     2 shells
 l=0 nsto= 1
    2       1.625000000000        1.000000000000
 l=1 nsto= 1
    2       1.625000000000        1.000000000000
 33 C     2 shells
 l=0 nsto= 1
    2       1.625000000000        1.000000000000
 l=1 nsto= 1
    2       1.625000000000        1.000000000000
 34 H     1 shells
 l=0 nsto= 1
    1       1.200000000000        1.000000000000
 35 H     1 shells
 l=0 nsto= 1
    1       1.200000000000        1.000000000000
 36 H     1 shells
 l=0 nsto= 1
    1       1.200000000000        1.000000000000
 37 H     1 shells
 l=0 nsto= 1
    1       1.200000000000        1.000000000000
 38 H     1 shells
 l=0 nsto= 1
    1       1.200000000000        1.000000000000
 39 H     1 shells
 l=0 nsto= 1
    1       1.200000000000        1.000000000000
 40 C     2 shells
 l=0 nsto= 1
    2       1.625000000000        1.000000000000
 l=1 nsto= 1
    2       1.625000000000        1.000000000000
 41 C     2 shells
 l=0 nsto= 1
    2       1.625000000000        1.000000000000
 l=1 nsto= 1
    2       1.625000000000        1.000000000000
 42 C     2 shells
 l=0 nsto= 1
    2       1.625000000000        1.000000000000
 l=1 nsto= 1
    2       1.625000000000        1.000000000000
 43 H     1 shells
 l=0 nsto= 1
    1       1.200000000000        1.000000000000
 44 H     1 shells
 l=0 nsto= 1
    1       1.200000000000        1.000000000000
 45 H     1 shells
 l=0 nsto= 1
    1       1.200000000000        1.000000000000
 46 H     1 shells
 l=0 nsto= 1
    1       1.200000000000        1.000000000000
 47 H     1 shells
 l=0 nsto= 1
    1       1.200000000000        1.000000000000
 48 H     1 shells
 l=0 nsto= 1
    1       1.200000000000        1.000000000000
 49 H     1 shells
 l=0 nsto= 1
    1       1.200000000000        1.000000000000
 50 H     1 shells
 l=0 nsto= 1
    1       1.200000000000        1.000000000000
 51 H     1 shells
 l=0 nsto= 1
    1       1.200000000000        1.000000000000
 52 H     1 shells
 l=0 nsto= 1
    1       1.200000000000        1.000000000000
 53 H     1 shells
 l=0 nsto= 1
    1       1.200000000000        1.000000000000
------------------------------------------------------------------------------
                           ORCA NDO INTEGRAL CALCULATION
------------------------------------------------------------------------------

--------------
NDO PARAMETERS
--------------

Gamma integral treatment              ... Mataga-Nishimoto
Nuclear repulsuion treatment          ... Direct (ZA*ZB/RAB)
Interaction factors:
s-s (sigma) =    1.0000
s-p (sigma) =    1.0000
s-d (sigma) =    1.0000
p-p (sigma) =    1.2670  p-p(pi) =    0.5850
p-d (sigma) =    1.0000  p-d(pi) =    1.0000
d-d (sigma) =    1.0000  d-d(pi) =    1.0000 d-d (delta) =    1.0000

fGamma parameter for Mataga-Nishimoto gamma integrals:    1.2000

--------------------------
Parameters for Element H :
--------------------------
 One-electron parameters (in eV)
  U(s)  =   -13.060000 Beta(s) =    12.000000 Neff(s) =     1.000000
 One-center electron repulsion parameters (in eV)
  G(s,s)=    12.850000
--------------------------
Parameters for Element C :
--------------------------
 One-electron parameters (in eV)
  U(s)  =   -50.870766 Beta(s) =    17.000000 Neff(s) =     2.000000
  U(p)  =   -41.599980 Beta(p) =    17.000000 Neff(p) =     2.000000 
 One-center electron repulsion parameters (in eV)
  G(s,s)=    11.110000
  G(s,p)=    11.110000 G(p,p)  =    11.110000
 Slater-Condon parameters (in eV)
 F2(p,p)=     4.5098 G1(s,p)=    6.8977
--------------------------
Parameters for Element S :
--------------------------
 One-electron parameters (in eV)
  U(s)  =   -69.509597 Beta(s) =    15.000000 Neff(s) =     2.000000
  U(p)  =   -60.725746 Beta(p) =    15.000000 Neff(p) =     4.000000 
 One-center electron repulsion parameters (in eV)
  G(s,s)=    10.090000
  G(s,p)=    10.090000 G(p,p)  =    10.090000
 Slater-Condon parameters (in eV)
 F2(p,p)=     4.5377 G1(s,p)=    3.0756

 Number of atoms                    ....   54
 Number of basis functions          ....  120

 Overlap integrals                  .... done
 One electron matrix                .... done
 Nuclear repulsion                  .... done
 Integral list                      .... done
 Electron-electron repulsion        .... done
-------------------------------------------------------------------------------
                                 ORCA SCF
-------------------------------------------------------------------------------

------------
SCF SETTINGS
------------
Hamiltonian:
 ZDO-Hamiltonian        Method          .... INDO


General Settings:
 Integral files         IntName         .... /Users/mattyjones/GoogleDrive/Boise/Code/MorphCT/tests/output_EZ/donor_polymer/chromophores/input_orca/pair/00003-00029
 Hartree-Fock type      HFTyp           .... RHF
 Total Charge           Charge          ....    0
 Multiplicity           Mult            ....    1
 Number of Electrons    NEL             ....  124
 Basis Dimension        Dim             ....  120
 Nuclear Repulsion      ENuc            ....    620.2341328566 Eh

Convergence Acceleration:
 DIIS                   CNVDIIS         .... on
   Start iteration      DIISMaxIt       ....    12
   Startup error        DIISStart       ....  0.200000
   # of expansion vecs  DIISMaxEq       ....     5
   Bias factor          DIISBfac        ....   1.050
   Max. coefficient     DIISMaxC        ....  10.000
 Newton-Raphson         CNVNR           .... off
 SOSCF                  CNVSOSCF        .... on
   Start iteration      SOSCFMaxIt      ....   150
   Startup grad/error   SOSCFStart      ....  0.003300
 Level Shifting         CNVShift        .... on
   Level shift para.    LevelShift      ....    0.2500
   Turn off err/grad.   ShiftErr        ....    0.0010
 Zerner damping         CNVZerner       .... off
 Static damping         CNVDamp         .... on
   Fraction old density DampFac         ....    0.7000
   Max. Damping (<1)    DampMax         ....    0.9800
   Min. Damping (>=0)   DampMin         ....    0.0000
   Turn off err/grad.   DampErr         ....    0.1000
 Fernandez-Rico         CNVRico         .... off

SCF Procedure:
 Maximum # iterations   MaxIter         ....   125
 SCF integral mode      SCFMode         .... Conventional
 Integral Buffer length BufferLength    .... 1048576
 Integral index format  IndFormat       ....     0
 Integral value format  ValFormat       ....     0
 Integral Storage       Thresh          ....  1.000e-08 Eh

Convergence Tolerance:
 Convergence Check Mode ConvCheckMode   .... Total+1el-Energy
 Energy Change          TolE            ....  1.000e-06 Eh
 1-El. energy change                    ....  1.000e-03 Eh
 Orbital Gradient       TolG            ....  5.000e-05
 Orbital Rotation angle TolX            ....  5.000e-05
 DIIS Error             TolErr          ....  1.000e-06


Diagonalization of the overlap matrix:
Smallest eigenvalue                        ... 1.692e-01
Time for diagonalization                   ...    0.003 sec
Threshold for overlap eigenvalues          ... 1.000e-08
Number of eigenvalues below threshold      ... 0
Time for construction of square roots      ...    0.001 sec
Total time needed                          ...    0.005 sec

-------------------------------
INITIAL GUESS: EXTENDED HUECKEL
-------------------------------
EHT matrix was read from disk
EHT matrix was diagonalized
Initial density was built
                      ------------------
                      INITIAL GUESS DONE
                      ------------------

 InCore treatment chosen:
   Memory dedicated               ...    1024 MB
   Memory needed                  ...      0 MB
   Number of tiny    integrals    ...       0
   Number of small   integrals    ...       0
   Number of regular integrals    ...    7392

--------------
SCF ITERATIONS
--------------
ITER       Energy         Delta-E        Max-DP      RMS-DP      [F,P]     Damp
  0    -19.1134045250   0.000000000000 0.04478757  0.00146884  0.1081744 0.7000
  1    -19.1563041689  -0.042899643924 0.04416030  0.00138620  0.0760059 0.7000
                               ***Turning on DIIS***
  2    -19.1880049196  -0.031700750706 0.11781104  0.00356176  0.0501996 0.0000
  3    -19.2713798314  -0.083374911745 0.02366984  0.00074537  0.0224205 0.0000
  4    -19.2551517807   0.016228050665 0.01598161  0.00051566  0.0082874 0.0000
  5    -19.2727216043  -0.017569823537 0.01130183  0.00035053  0.0049734 0.0000
  6    -19.2748589331  -0.002137328849 0.00839903  0.00025014  0.0030557 0.0000
                      *** Initiating the SOSCF procedure ***
                           *** Shutting down DIIS ***
                      *** Re-Reading the Fockian *** 
                      *** Removing any level shift *** 
ITER      Energy       Delta-E        Grad      Rot      Max-DP    RMS-DP
  7    -19.27106898   0.0037899516  0.003154  0.003154  0.005060  0.000143
  8    -19.26920857   0.0018604117  0.000906  0.002555  0.002479  0.000067
  9    -19.26922542  -0.0000168456  0.000405  0.002575  0.002812  0.000074
 10    -19.26923187  -0.0000064529  0.000037  0.000089  0.000165  0.000004
                 **** Energy Check signals convergence ****
              ***Rediagonalizing the Fockian in SOSCF/NRSCF***

               *****************************************************
               *                     SUCCESS                       *
               *           SCF CONVERGED AFTER  11 CYCLES          *
               *****************************************************


----------------
TOTAL SCF ENERGY
----------------

Total Energy       :          -19.26923193 Eh            -524.34246 eV

Components:
Nuclear Repulsion  :          620.23413286 Eh           16877.42879 eV
Electronic Energy  :         -639.50336479 Eh          -17401.77124 eV

One Electron Energy:        -1188.76518693 Eh          -32347.94527 eV
Two Electron Energy:          549.26182214 Eh           14946.17403 eV


---------------
SCF CONVERGENCE
---------------

  Last Energy change         ...   -6.0639e-08  Tolerance :   1.0000e-06
  Last MAX-Density change    ...    5.8752e-05  Tolerance :   1.0000e-05
  Last RMS-Density change    ...    1.5095e-06  Tolerance :   1.0000e-06
  Last Orbital Gradient      ...    1.2143e-05  Tolerance :   5.0000e-05
  Last Orbital Rotation      ...    2.9254e-05  Tolerance :   5.0000e-05

             **** THE GBW FILE WAS UPDATED (/Users/mattyjones/GoogleDrive/Boise/Code/MorphCT/tests/output_EZ/donor_polymer/chromophores/input_orca/pair/00003-00029.gbw) ****
             **** DENSITY FILE WAS UPDATED (/Users/mattyjones/GoogleDrive/Boise/Code/MorphCT/tests/output_EZ/donor_polymer/chromophores/input_orca/pair/00003-00029.scfp.tmp) ****
             **** ENERGY FILE WAS UPDATED (/Users/mattyjones/GoogleDrive/Boise/Code/MorphCT/tests/output_EZ/donor_polymer/chromophores/input_orca/pair/00003-00029.en.tmp) ****
----------------
ORBITAL ENERGIES
----------------

  NO   OCC          E(Eh)            E(eV) 
   0   2.0000      -1.558333       -42.4044 
   1   2.0000      -1.555257       -42.3207 
   2   2.0000      -1.412993       -38.4495 
   3   2.0000      -1.396177       -37.9919 
   4   2.0000      -1.279239       -34.8099 
   5   2.0000      -1.277960       -34.7751 
   6   2.0000      -1.191259       -32.4158 
   7   2.0000      -1.187472       -32.3128 
   8   2.0000      -1.106537       -30.1104 
   9   2.0000      -1.098548       -29.8930 
  10   2.0000      -1.051535       -28.6137 
  11   2.0000      -1.029254       -28.0074 
  12   2.0000      -0.990911       -26.9641 
  13   2.0000      -0.983674       -26.7671 
  14   2.0000      -0.912235       -24.8232 
  15   2.0000      -0.906725       -24.6732 
  16   2.0000      -0.847800       -23.0698 
  17   2.0000      -0.836567       -22.7641 
  18   2.0000      -0.823129       -22.3985 
  19   2.0000      -0.821231       -22.3468 
  20   2.0000      -0.775860       -21.1122 
  21   2.0000      -0.774440       -21.0736 
  22   2.0000      -0.729677       -19.8555 
  23   2.0000      -0.724664       -19.7191 
  24   2.0000      -0.704805       -19.1787 
  25   2.0000      -0.698244       -19.0002 
  26   2.0000      -0.680546       -18.5186 
  27   2.0000      -0.669915       -18.2293 
  28   2.0000      -0.638789       -17.3823 
  29   2.0000      -0.633200       -17.2302 
  30   2.0000      -0.620759       -16.8917 
  31   2.0000      -0.608816       -16.5667 
  32   2.0000      -0.590747       -16.0750 
  33   2.0000      -0.586847       -15.9689 
  34   2.0000      -0.586127       -15.9493 
  35   2.0000      -0.571203       -15.5432 
  36   2.0000      -0.566726       -15.4214 
  37   2.0000      -0.566104       -15.4045 
  38   2.0000      -0.549402       -14.9500 
  39   2.0000      -0.547892       -14.9089 
  40   2.0000      -0.534690       -14.5497 
  41   2.0000      -0.532565       -14.4918 
  42   2.0000      -0.522321       -14.2131 
  43   2.0000      -0.512441       -13.9442 
  44   2.0000      -0.503411       -13.6985 
  45   2.0000      -0.500028       -13.6065 
  46   2.0000      -0.499820       -13.6008 
  47   2.0000      -0.496882       -13.5208 
  48   2.0000      -0.490796       -13.3552 
  49   2.0000      -0.485217       -13.2034 
  50   2.0000      -0.473819       -12.8933 
  51   2.0000      -0.470272       -12.7968 
  52   2.0000      -0.462877       -12.5955 
  53   2.0000      -0.461465       -12.5571 
  54   2.0000      -0.459527       -12.5044 
  55   2.0000      -0.439136       -11.9495 
  56   2.0000      -0.434304       -11.8180 
  57   2.0000      -0.430291       -11.7088 
  58   2.0000      -0.357355        -9.7241 
  59   2.0000      -0.351850        -9.5743 
  60   2.0000      -0.305681        -8.3180 
  61   2.0000      -0.304433        -8.2840 
  62   0.0000       0.002861         0.0779 
  63   0.0000       0.005724         0.1558 
  64   0.0000       0.040013         1.0888 
  65   0.0000       0.056038         1.5249 
  66   0.0000       0.072803         1.9811 
  67   0.0000       0.075884         2.0649 
  68   0.0000       0.084793         2.3073 
  69   0.0000       0.091993         2.5033 
  70   0.0000       0.099255         2.7009 
  71   0.0000       0.103052         2.8042 
  72   0.0000       0.106279         2.8920 
  73   0.0000       0.109091         2.9685 
  74   0.0000       0.120798         3.2871 
  75   0.0000       0.126982         3.4554 
  76   0.0000       0.141683         3.8554 
  77   0.0000       0.145700         3.9647 
  78   0.0000       0.158293         4.3074 
  79   0.0000       0.158462         4.3120 
  80   0.0000       0.164302         4.4709 
  81   0.0000       0.164938         4.4882 
  82   0.0000       0.174042         4.7359 
  83   0.0000       0.174864         4.7583 
  84   0.0000       0.199491         5.4284 
  85   0.0000       0.202078         5.4988 
  86   0.0000       0.220258         5.9935 
  87   0.0000       0.229402         6.2423 
  88   0.0000       0.231830         6.3084 
  89   0.0000       0.231874         6.3096 
  90   0.0000       0.234745         6.3877 
  91   0.0000       0.236467         6.4346 
  92   0.0000       0.236769         6.4428 
  93   0.0000       0.239092         6.5060 
  94   0.0000       0.239371         6.5136 
  95   0.0000       0.239631         6.5207 
  96   0.0000       0.241427         6.5696 
  97   0.0000       0.242147         6.5892 
  98   0.0000       0.244455         6.6520 
  99   0.0000       0.244596         6.6558 
 100   0.0000       0.246144         6.6979 
 101   0.0000       0.247326         6.7301 
 102   0.0000       0.255927         6.9641 
 103   0.0000       0.262659         7.1473 
 104   0.0000       0.265290         7.2189 
 105   0.0000       0.265728         7.2308 
 106   0.0000       0.279185         7.5970 
 107   0.0000       0.288557         7.8520 
 108   0.0000       0.304813         8.2944 
 109   0.0000       0.307556         8.3690 
 110   0.0000       0.308854         8.4043 
 111   0.0000       0.309314         8.4169 
 112   0.0000       0.334937         9.1141 
 113   0.0000       0.341862         9.3025 
 114   0.0000       0.354403         9.6438 
 115   0.0000       0.364589         9.9210 
 116   0.0000       0.400808        10.9065 
 117   0.0000       0.404821        11.0157 
 118   0.0000       0.438112        11.9216 
 119   0.0000       0.438347        11.9280 
-------
TIMINGS
-------

Total SCF time: 0 days 0 hours 0 min 0 sec 

Total time                  ....       0.142 sec
Sum of individual times     ....       0.118 sec  ( 83.2%)

Fock matrix formation       ....       0.048 sec  ( 33.8%)
Diagonalization             ....       0.024 sec  ( 17.1%)
Density matrix formation    ....       0.005 sec  (  3.7%)
Population analysis         ....       0.000 sec  (  0.0%)
Initial guess               ....       0.003 sec  (  2.4%)
Orbital Transformation      ....       0.000 sec  (  0.0%)
Orbital Orthonormalization  ....       0.000 sec  (  0.0%)
DIIS solution               ....       0.032 sec  ( 22.3%)
SOSCF solution              ....       0.006 sec  (  3.9%)

-------------------------   --------------------
FINAL SINGLE POINT ENERGY       -19.269231928917
-------------------------   --------------------


                            ***************************************
                            *     ORCA property calculations      *
                            ***************************************

                                    ---------------------
                                    Active property flags
                                    ---------------------
   (+) Dipole Moment


------------------------------------------------------------------------------
                       ORCA ELECTRIC PROPERTIES CALCULATION
------------------------------------------------------------------------------

Dipole Moment Calculation                       ... on
Quadrupole Moment Calculation                   ... off
Polarizability Calculation                      ... off
GBWName                                         ... /Users/mattyjones/GoogleDrive/Boise/Code/MorphCT/tests/output_EZ/donor_polymer/chromophores/input_orca/pair/00003-00029.gbw
Electron density file                           ... /Users/mattyjones/GoogleDrive/Boise/Code/MorphCT/tests/output_EZ/donor_polymer/chromophores/input_orca/pair/00003-00029.scfp.tmp

-------------
DIPOLE MOMENT
-------------
                                X             Y             Z
Electronic contribution:     54.06970     -78.31865     -68.32581
Nuclear contribution   :    -27.93323      42.25678      34.06561
                        -----------------------------------------
Total Dipole Moment    :     26.13647     -36.06187     -34.26020
                        -----------------------------------------
Magnitude (a.u.)       :     56.19017
Magnitude (Debye)      :    142.82405


Timings for individual modules:

Sum of individual times         ...        0.237 sec (=   0.004 min)
STO integral calculation        ...        0.059 sec (=   0.001 min)  24.7 %
SCF iterations                  ...        0.179 sec (=   0.003 min)  75.3 %
                             ****ORCA TERMINATED NORMALLY****
TOTAL RUN TIME: 0 days 0 hours 0 minutes 0 seconds 530 msec

