
                                 *****************
                                 * O   R   C   A *
                                 *****************

           --- An Ab Initio, DFT and Semiempirical electronic structure package ---

                  #######################################################
                  #                        -***-                        #
                  #  Department of molecular theory and spectroscopy    #
                  #              Directorship: Frank Neese              #
                  # Max Planck Institute for Chemical Energy Conversion #
                  #                  D-45470 Muelheim/Ruhr              #
                  #                       Germany                       #
                  #                                                     #
                  #                  All rights reserved                #
                  #                        -***-                        #
                  #######################################################


                         Program Version 3.0.3 - RELEASE   -


 With contributions from (in alphabetic order):
   Ute Becker             : Parallelization
   Dmytro Bykov           : SCF Hessian
   Dmitry Ganyushin       : Spin-Orbit,Spin-Spin,Magnetic field MRCI
   Andreas Hansen         : Spin unrestricted coupled pair/coupled cluster methods
   Dimitrios Liakos       : Extrapolation schemes; parallel MDCI
   Robert Izsak           : Overlap fitted RIJCOSX, COSX-SCS-MP3
   Christian Kollmar      : KDIIS, OOCD, Brueckner-CCSD(T), CCSD density
   Simone Kossmann        : Meta GGA functionals, TD-DFT gradient, OOMP2, MP2 Hessian
   Taras Petrenko         : DFT Hessian,TD-DFT gradient, ASA and ECA modules, normal mode analysis, Resonance Raman, ABS, FL, XAS/XES, NRVS
   Christoph Reimann      : Effective Core Potentials
   Michael Roemelt        : Restricted open shell CIS
   Christoph Riplinger    : Improved optimizer, TS searches, QM/MM, DLPNO-CCSD
   Barbara Sandhoefer     : DKH picture change effects
   Igor Schapiro          : Molecular dynamics
   Kantharuban Sivalingam : CASSCF convergence, NEVPT2
   Boris Wezisla          : Elementary symmetry handling
   Frank Wennmohs         : Technical directorship


 We gratefully acknowledge several colleagues who have allowed us to
 interface, adapt or use parts of their codes:
   Stefan Grimme, W. Hujo, H. Kruse, T. Risthaus : VdW corrections, initial TS optimization,
                                                   DFT functionals, gCP
   Ed Valeev                                     : LibInt (2-el integral package), F12 methods
   Garnet Chan, S. Sharma, R. Olivares           : DMRG
   Ulf Ekstrom                                   : XCFun DFT Library
   Mihaly Kallay                                 : mrcc  (arbitrary order and MRCC methods)
   Andreas Klamt, Michael Diedenhofen            : otool_cosmo (COSMO solvation model)
   Frank Weinhold                                : gennbo (NPA and NBO analysis)
   Christopher J. Cramer and Donald G. Truhlar   : smd solvation model


 Your calculation uses the libint2 library for the computation of 2-el integrals
 For citations please refer to: http://libint.valeyev.net

 This ORCA versions uses:
   CBLAS   interface :  Fast vector & matrix operations
   LAPACKE interface :  Fast linear algebra routines
   SCALAPACK package :  Parallel linear algebra routines


leaving
================================================================================
                                        WARNINGS
                       Please study these warnings very carefully!
================================================================================
Now building the actual basis set

WARNING: Direct SCF is incompatible with Method<>HF and Method<>DFT
  ===> : conventional SCF is chosen

WARNING: The NDO methods need Guess=HUECKEL or Guess=HCORE or Guess=MOREAD
  ===> : Guess is set to Hueckel

WARNING: The NDO methods need %rel::SOCType==1
  ===> : %rel::SOCType is set to 1

WARNING: The NDO methods cannot have frozencore=1
  ===> : %method FrozenCore=0 end


INFO   : the flag for use of LIBINT has been found!

================================================================================
                                       INPUT FILE
================================================================================
NAME = /Users/mattyjones/GoogleDrive/Boise/Code/MorphCT/tests/output_EZ/donor_polymer/chromophores/input_orca/pair/00008-00026.inp
|  1> # ================================================================
|  2> # Orca input file made by Matty Jones
|  3> # ================================================================
|  4> ! ZINDO/S 
|  5> ! NOPOP
|  6> ! NOMOPRINT
|  7> * xyz 0   1
|  8>  C  -15.92880  -7.17724  -6.17175
|  9>  C  -16.61342  -8.25330  -5.60492
| 10>  C  -15.86238  -8.97087  -4.62242
| 11>  C  -14.57823  -8.45884  -4.41238
| 12>  S  -14.44157  -7.16346  -5.43890
| 13>  H  -17.66111  -8.58809  -5.91588
| 14>  C  -16.44363  -10.23513  -3.81295
| 15>  C  -17.26638  -11.55637  -4.50625
| 16>  C  -18.95931  -11.57376  -4.67030
| 17>  H  -19.42404  -11.33028  -3.64296
| 18>  H  -19.25630  -10.75866  -5.42966
| 19>  H  -16.99792  -12.47532  -3.85984
| 20>  H  -16.83224  -11.69548  -5.56538
| 21>  H  -17.17795  -9.83472  -2.99207
| 22>  H  -15.56500  -10.76050  -3.25829
| 23>  C  -19.47216  -13.03698  -5.18759
| 24>  C  -21.13724  -13.32718  -5.28975
| 25>  C  -21.81690  -14.02513  -3.91417
| 26>  H  -22.71578  -14.68436  -4.22728
| 27>  H  -22.17927  -13.18912  -3.20098
| 28>  H  -21.02838  -14.67951  -3.37716
| 29>  H  -21.31722  -14.04402  -6.17444
| 30>  H  -21.66984  -12.32580  -5.48930
| 31>  H  -19.04277  -13.21938  -6.24818
| 32>  H  -19.04107  -13.84525  -4.47771
| 33>  C  16.37536  7.75671  2.01194
| 34>  C  16.95679  8.41853  3.09446
| 35>  C  16.11458  9.40451  3.69677
| 36>  C  14.86180  9.52185  3.08679
| 37>  S  14.86208  8.41506  1.85171
| 38>  H  18.01437  8.20776  3.47114
| 39>  C  16.53136  10.33851  4.95268
| 40>  C  17.84596  11.38486  4.71861
| 41>  C  18.26110  12.43042  5.98982
| 42>  H  17.28216  12.90814  6.37979
| 43>  H  18.73060  11.80606  6.83797
| 44>  H  18.77017  10.74311  4.47712
| 45>  H  17.58054  12.04363  3.80983
| 46>  H  15.63959  10.96110  5.35526
| 47>  H  16.86301  9.63585  5.82907
| 48>  C  19.27785  13.61232  5.50502
| 49>  C  20.94126  13.32684  5.55860
| 50>  C  21.39077  11.87180  6.26476
| 51>  H  22.53452  11.73143  6.15176
| 52>  H  20.84126  10.99834  5.74367
| 53>  H  21.11457  11.89407  7.38872
| 54>  H  21.33346  13.32839  4.47294
| 55>  H  21.43916  14.18623  6.14407
| 56>  H  19.02438  13.89464  4.40969
| 57>  H  19.08636  14.54634  6.16593
| 58>  H  -16.28461  -6.50959  -6.91420
| 59>  H  -13.84554  -8.82250  -3.73821
| 60>  H  16.80963  6.99401  1.41757
| 61>  H  14.07639  10.18034  3.35719
| 62> *
| 63> 
| 64>                          ****END OF INPUT****
================================================================================

                       ****************************
                       * Single Point Calculation *
                       ****************************

---------------------------------
CARTESIAN COORDINATES (ANGSTROEM)
---------------------------------
  C    -15.928800   -7.177240   -6.171750
  C    -16.613420   -8.253300   -5.604920
  C    -15.862380   -8.970870   -4.622420
  C    -14.578230   -8.458840   -4.412380
  S    -14.441570   -7.163460   -5.438900
  H    -17.661110   -8.588090   -5.915880
  C    -16.443630  -10.235130   -3.812950
  C    -17.266380  -11.556370   -4.506250
  C    -18.959310  -11.573760   -4.670300
  H    -19.424040  -11.330280   -3.642960
  H    -19.256300  -10.758660   -5.429660
  H    -16.997920  -12.475320   -3.859840
  H    -16.832240  -11.695480   -5.565380
  H    -17.177950   -9.834720   -2.992070
  H    -15.565000  -10.760500   -3.258290
  C    -19.472160  -13.036980   -5.187590
  C    -21.137240  -13.327180   -5.289750
  C    -21.816900  -14.025130   -3.914170
  H    -22.715780  -14.684360   -4.227280
  H    -22.179270  -13.189120   -3.200980
  H    -21.028380  -14.679510   -3.377160
  H    -21.317220  -14.044020   -6.174440
  H    -21.669840  -12.325800   -5.489300
  H    -19.042770  -13.219380   -6.248180
  H    -19.041070  -13.845250   -4.477710
  C     16.375360    7.756710    2.011940
  C     16.956790    8.418530    3.094460
  C     16.114580    9.404510    3.696770
  C     14.861800    9.521850    3.086790
  S     14.862080    8.415060    1.851710
  H     18.014370    8.207760    3.471140
  C     16.531360   10.338510    4.952680
  C     17.845960   11.384860    4.718610
  C     18.261100   12.430420    5.989820
  H     17.282160   12.908140    6.379790
  H     18.730600   11.806060    6.837970
  H     18.770170   10.743110    4.477120
  H     17.580540   12.043630    3.809830
  H     15.639590   10.961100    5.355260
  H     16.863010    9.635850    5.829070
  C     19.277850   13.612320    5.505020
  C     20.941260   13.326840    5.558600
  C     21.390770   11.871800    6.264760
  H     22.534520   11.731430    6.151760
  H     20.841260   10.998340    5.743670
  H     21.114570   11.894070    7.388720
  H     21.333460   13.328390    4.472940
  H     21.439160   14.186230    6.144070
  H     19.024380   13.894640    4.409690
  H     19.086360   14.546340    6.165930
  H    -16.284610   -6.509590   -6.914200
  H    -13.845540   -8.822500   -3.738210
  H     16.809630    6.994010    1.417570
  H     14.076390   10.180340    3.357190

----------------------------
CARTESIAN COORDINATES (A.U.)
----------------------------
  NO LB      ZA    FRAG    MASS        X           Y           Z
   0 C     4.0000    0    12.011        -30.101069642004834        -13.563017997424964        -11.662917267028485
   1 C     4.0000    0    12.011        -31.394813947810004        -15.596476701092266        -10.591763802537901
   2 C     4.0000    0    12.011        -29.975554032189784        -16.952487483010138         -8.735107875960272
   3 C     4.0000    0    12.011        -27.548862217314809        -15.984891010658441         -8.338189798791452
   4 S     6.0000    0    32.060        -27.290612243853133        -13.536977571299529        -10.278031469784295
   5 H     1.0000    0     1.008        -33.374661121057962        -16.229138113467762        -11.179393041142054
   6 C     4.0000    0    12.011        -31.073957347531508        -19.341592645081420         -7.205431262335036
   7 C     4.0000    0    12.011        -32.628729524215224        -21.838374402263533         -8.515578390982640
   8 C     4.0000    0    12.011        -35.827903588114523        -21.871236739732424         -8.825587963252422
   9 H     1.0000    0     1.008        -36.706116014331755        -21.411126220645279         -6.884196716829763
  10 H     1.0000    0     1.008        -36.389133352627795        -20.330920967973213        -10.260570400306863
  11 H     1.0000    0     1.008        -32.121413646302720        -23.574938233030469         -7.294040520754605
  12 H     1.0000    0     1.008        -31.808323820434648        -22.101254204753321        -10.517044031202657
  13 H     1.0000    0     1.008        -32.461621042192562        -18.584927403798012         -5.654192873521759
  14 H     1.0000    0     1.008        -29.413587274484282        -20.334398064059631         -6.157275764894275
  15 C     4.0000    0    12.011        -36.797049635896038        -24.636321813408678         -9.803124395068545
  16 C     4.0000    0    12.011        -39.943594826965636        -25.184720337472626         -9.996178816909941
  17 C     4.0000    0    12.011        -41.227966091146556        -26.503654692642964         -7.396709341610546
  18 H     1.0000    0     1.008        -42.926603118405687        -27.749418851907869         -7.988401491402629
  19 H     1.0000    0     1.008        -41.912746150295597        -24.923824747423460         -6.048975560159248
  20 H     1.0000    0     1.008        -39.737879240026970        -27.740253680158354         -6.381907510433495
  21 H     1.0000    0     1.008        -40.283707736548784        -26.539351619312736        -11.668000630328732
  22 H     1.0000    0     1.008        -40.950062965892094        -23.292386381486562        -10.373273666933926
  23 H     1.0000    0     1.008        -35.985620131251594        -24.981007860235913        -11.807349035444085
  24 H     1.0000    0     1.008        -35.982407596823933        -26.163730755673210         -8.461645607120527
  25 C     4.0000    0    12.011         30.944945744368709         14.658057600248313          3.802015597881523
  26 C     4.0000    0    12.011         32.043689210414541         15.908716150200076          5.847681932373956
  27 C     4.0000    0    12.011         30.452142963164725         17.771948323723752          6.985882880096066
  28 C     4.0000    0    12.011         28.084731857110860         17.993688788278071          5.833187732926780
  29 S     6.0000    0    32.060         28.085260980428359         15.902158800515370          3.499224779443321
  30 H     1.0000    0     1.008         34.042225775126980         15.510418572953494          6.559503972499414
  31 C     4.0000    0    12.011         31.239743021260423         19.536952532806197          9.359208828949104
  32 C     4.0000    0    12.011         33.723976996913301         21.514267473034700          8.916880632782156
  33 C     4.0000    0    12.011         34.508477904149366         23.490089529617403         11.319119391484191
  34 H     1.0000    0     1.008         32.658549402608500         24.392849498314263         12.056055891929462
  35 H     1.0000    0     1.008         35.395704324025395         22.310220120642335         12.921890611969502
  36 H     1.0000    0     1.008         35.470480787144659         20.301535726590739          8.460530668701514
  37 H     1.0000    0     1.008         33.222405886447923         22.759162358278004          7.199535316797202
  38 H     1.0000    0     1.008         29.554541946813469         20.713477126524232         10.119974775943122
  39 H     1.0000    0     1.008         31.866470693575405         18.209117567545093         11.015345915456351
  40 C     4.0000    0    12.011         36.429856950813800         25.723556847298934         10.402980161759169
  41 C     4.0000    0    12.011         39.573246299239749         25.184077830587096         10.504231688014670
  42 C     4.0000    0    12.011         40.422697093698694         22.434450716686317         11.838680694744500
  43 H     1.0000    0     1.008         42.584071359371123         22.169189859267789         11.625141641611400
  44 H     1.0000    0     1.008         39.384273685847624         20.783850527751461         10.853963303619475
  45 H     1.0000    0     1.008         39.900754735509643         22.476534917688742         13.962657280226631
  46 H     1.0000    0     1.008         40.314396888963664         25.187006906094673          8.452631613461724
  47 H     1.0000    0     1.008         40.514140941319141         26.808089572817678         11.610609647641544
  48 H     1.0000    0     1.008         35.950868067648784         26.257064329427582          8.333106435491205
  49 H     1.0000    0     1.008         36.067993293429218         27.488598850904062         11.651919060929064
  50 H     1.0000    0     1.008        -30.773453097715354        -12.301342344112442        -13.065944435158318
  51 H     1.0000    0     1.008        -26.164278776252047        -16.672108816520243         -7.064193131085762
  52 H     1.0000    0     1.008         31.765597112546686         13.216763477906573          2.678819075662749
  53 H     1.0000    0     1.008         26.600522054267767         19.238054550203874          6.344169679539087

--------------------------------
INTERNAL COORDINATES (ANGSTROEM)
--------------------------------
 C      0   0   0   0.000000     0.000     0.000
 C      1   0   0   1.395674     0.000     0.000
 C      2   1   0   1.429781   114.102     0.000
 C      3   2   1   1.398332   113.693     0.000
 S      1   2   3   1.658045   105.479     0.000
 H      2   1   3   1.142994   124.400   183.012
 C      3   2   1   1.609797   123.368   179.033
 C      7   3   2   1.703895   125.361    47.242
 C      8   7   3   1.700949   121.854   268.886
 H      9   8   7   1.153553   108.235   307.998
 H      9   8   7   1.152917   108.221    66.566
 H      8   7   3   1.155156   106.079   147.644
 H      8   7   3   1.153077   106.588    31.235
 H      7   3   2   1.171921   108.067   283.835
 H      7   3   2   1.164325   108.750   167.950
 C      9   8   7   1.634508   110.607   187.249
 C     16   9   8   1.693264   118.755   174.619
 C     17  16   9   1.685613   114.723   267.285
 H     18  17  16   1.157846   109.153   210.399
 H     18  17  16   1.157093   109.275    90.594
 H     18  17  16   1.156874   109.767   330.332
 H     17  16   9   1.152792   107.842   147.157
 H     17  16   9   1.151627   108.434    28.549
 H     16   9   8   1.158662   108.321   296.005
 H     16   9   8   1.158908   108.287    53.181
 C      5   1   2  35.040115   152.424   191.763
 C     26   5   1   1.395678   137.157   102.944
 C     27  26   5   1.429773   114.101   314.396
 C     28  27  26   1.398321   113.694     0.000
 S     26   5   1   1.658045    49.144    37.381
 H     27  26   5   1.142273   123.641   134.904
 C     28  27  26   1.619683   124.941   180.884
 C     32  28  27   1.696411   116.622    61.836
 C     33  32  28   1.697502   117.782   177.118
 H     34  33  32   1.156986   107.446   314.088
 H     34  33  32   1.153089   108.475    71.400
 H     33  32  28   1.150793   107.899   299.225
 H     33  32  28   1.153389   106.420    56.965
 H     32  28  27   1.159717   112.388   187.619
 H     32  28  27   1.171231   107.886   304.440
 C     34  33  32   1.632697   112.074   194.183
 C     41  34  33   1.688580   118.793   271.444
 C     42  41  34   1.678649   115.067   354.151
 H     43  42  41   1.157859   109.181   174.295
 H     43  42  41   1.156040   109.756    54.254
 H     43  42  41   1.157613   109.140   293.878
 H     42  41  34   1.154331   107.736   114.421
 H     42  41  34   1.152923   108.392   232.541
 H     41  34  33   1.159181   108.706    33.539
 H     41  34  33   1.160114   108.111   150.334
 H      1   2   3   1.059995   127.260   180.000
 H      4   3   2   1.059995   127.206   180.000
 H     26   5   1   1.059989    86.256   248.201
 H     29  28  27   1.059997   127.206   180.000

---------------------------
INTERNAL COORDINATES (A.U.)
---------------------------
 C      0   0   0   0.000000     0.000     0.000
 C      1   0   0   2.637442     0.000     0.000
 C      2   1   0   2.701895   114.102     0.000
 C      3   2   1   2.642465   113.693     0.000
 S      1   2   3   3.133250   105.479     0.000
 H      2   1   3   2.159945   124.400   183.012
 C      3   2   1   3.042076   123.368   179.033
 C      7   3   2   3.219895   125.361    47.242
 C      8   7   3   3.214327   121.854   268.886
 H      9   8   7   2.179899   108.235   307.998
 H      9   8   7   2.178698   108.221    66.566
 H      8   7   3   2.182929   106.079   147.644
 H      8   7   3   2.178999   106.588    31.235
 H      7   3   2   2.214609   108.067   283.835
 H      7   3   2   2.200255   108.750   167.950
 C      9   8   7   3.088773   110.607   187.249
 C     16   9   8   3.199806   118.755   174.619
 C     17  16   9   3.185348   114.723   267.285
 H     18  17  16   2.188012   109.153   210.399
 H     18  17  16   2.186589   109.275    90.594
 H     18  17  16   2.186174   109.767   330.332
 H     17  16   9   2.178461   107.842   147.157
 H     17  16   9   2.176260   108.434    28.549
 H     16   9   8   2.189553   108.321   296.005
 H     16   9   8   2.190019   108.287    53.181
 C      5   1   2  66.216221   152.424   191.763
 C     26   5   1   2.637449   137.157   102.944
 C     27  26   5   2.701880   114.101   314.396
 C     28  27  26   2.642444   113.694     0.000
 S     26   5   1   3.133252    49.144    37.381
 H     27  26   5   2.158583   123.641   134.904
 C     28  27  26   3.060756   124.941   180.884
 C     32  28  27   3.205752   116.622    61.836
 C     33  32  28   3.207813   117.782   177.118
 H     34  33  32   2.186387   107.446   314.088
 H     34  33  32   2.179022   108.475    71.400
 H     33  32  28   2.174684   107.899   299.225
 H     33  32  28   2.179590   106.420    56.965
 H     32  28  27   2.191547   112.388   187.619
 H     32  28  27   2.213306   107.886   304.440
 C     34  33  32   3.085350   112.074   194.183
 C     41  34  33   3.190954   118.793   271.444
 C     42  41  34   3.172187   115.067   354.151
 H     43  42  41   2.188036   109.181   174.295
 H     43  42  41   2.184599   109.756    54.254
 H     43  42  41   2.187572   109.140   293.878
 H     42  41  34   2.181370   107.736   114.421
 H     42  41  34   2.178708   108.392   232.541
 H     41  34  33   2.190534   108.706    33.539
 H     41  34  33   2.192297   108.111   150.334
 H      1   2   3   2.003100   127.260   180.000
 H      4   3   2   2.003099   127.206   180.000
 H     26   5   1   2.003090    86.256   248.201
 H     29  28  27   2.003104   127.206   180.000

----------------------------
SLATER BASIS SET DIM= 120
----------------------------
  0 C     2 shells
 l=0 nsto= 1
    2       1.625000000000        1.000000000000
 l=1 nsto= 1
    2       1.625000000000        1.000000000000
  1 C     2 shells
 l=0 nsto= 1
    2       1.625000000000        1.000000000000
 l=1 nsto= 1
    2       1.625000000000        1.000000000000
  2 C     2 shells
 l=0 nsto= 1
    2       1.625000000000        1.000000000000
 l=1 nsto= 1
    2       1.625000000000        1.000000000000
  3 C     2 shells
 l=0 nsto= 1
    2       1.625000000000        1.000000000000
 l=1 nsto= 1
    2       1.625000000000        1.000000000000
  4 S     2 shells
 l=0 nsto= 1
    3       1.925000000000        1.000000000000
 l=1 nsto= 1
    3       1.925000000000        1.000000000000
  5 H     1 shells
 l=0 nsto= 1
    1       1.200000000000        1.000000000000
  6 C     2 shells
 l=0 nsto= 1
    2       1.625000000000        1.000000000000
 l=1 nsto= 1
    2       1.625000000000        1.000000000000
  7 C     2 shells
 l=0 nsto= 1
    2       1.625000000000        1.000000000000
 l=1 nsto= 1
    2       1.625000000000        1.000000000000
  8 C     2 shells
 l=0 nsto= 1
    2       1.625000000000        1.000000000000
 l=1 nsto= 1
    2       1.625000000000        1.000000000000
  9 H     1 shells
 l=0 nsto= 1
    1       1.200000000000        1.000000000000
 10 H     1 shells
 l=0 nsto= 1
    1       1.200000000000        1.000000000000
 11 H     1 shells
 l=0 nsto= 1
    1       1.200000000000        1.000000000000
 12 H     1 shells
 l=0 nsto= 1
    1       1.200000000000        1.000000000000
 13 H     1 shells
 l=0 nsto= 1
    1       1.200000000000        1.000000000000
 14 H     1 shells
 l=0 nsto= 1
    1       1.200000000000        1.000000000000
 15 C     2 shells
 l=0 nsto= 1
    2       1.625000000000        1.000000000000
 l=1 nsto= 1
    2       1.625000000000        1.000000000000
 16 C     2 shells
 l=0 nsto= 1
    2       1.625000000000        1.000000000000
 l=1 nsto= 1
    2       1.625000000000        1.000000000000
 17 C     2 shells
 l=0 nsto= 1
    2       1.625000000000        1.000000000000
 l=1 nsto= 1
    2       1.625000000000        1.000000000000
 18 H     1 shells
 l=0 nsto= 1
    1       1.200000000000        1.000000000000
 19 H     1 shells
 l=0 nsto= 1
    1       1.200000000000        1.000000000000
 20 H     1 shells
 l=0 nsto= 1
    1       1.200000000000        1.000000000000
 21 H     1 shells
 l=0 nsto= 1
    1       1.200000000000        1.000000000000
 22 H     1 shells
 l=0 nsto= 1
    1       1.200000000000        1.000000000000
 23 H     1 shells
 l=0 nsto= 1
    1       1.200000000000        1.000000000000
 24 H     1 shells
 l=0 nsto= 1
    1       1.200000000000        1.000000000000
 25 C     2 shells
 l=0 nsto= 1
    2       1.625000000000        1.000000000000
 l=1 nsto= 1
    2       1.625000000000        1.000000000000
 26 C     2 shells
 l=0 nsto= 1
    2       1.625000000000        1.000000000000
 l=1 nsto= 1
    2       1.625000000000        1.000000000000
 27 C     2 shells
 l=0 nsto= 1
    2       1.625000000000        1.000000000000
 l=1 nsto= 1
    2       1.625000000000        1.000000000000
 28 C     2 shells
 l=0 nsto= 1
    2       1.625000000000        1.000000000000
 l=1 nsto= 1
    2       1.625000000000        1.000000000000
 29 S     2 shells
 l=0 nsto= 1
    3       1.925000000000        1.000000000000
 l=1 nsto= 1
    3       1.925000000000        1.000000000000
 30 H     1 shells
 l=0 nsto= 1
    1       1.200000000000        1.000000000000
 31 C     2 shells
 l=0 nsto= 1
    2       1.625000000000        1.000000000000
 l=1 nsto= 1
    2       1.625000000000        1.000000000000
 32 C     2 shells
 l=0 nsto= 1
    2       1.625000000000        1.000000000000
 l=1 nsto= 1
    2       1.625000000000        1.000000000000
 33 C     2 shells
 l=0 nsto= 1
    2       1.625000000000        1.000000000000
 l=1 nsto= 1
    2       1.625000000000        1.000000000000
 34 H     1 shells
 l=0 nsto= 1
    1       1.200000000000        1.000000000000
 35 H     1 shells
 l=0 nsto= 1
    1       1.200000000000        1.000000000000
 36 H     1 shells
 l=0 nsto= 1
    1       1.200000000000        1.000000000000
 37 H     1 shells
 l=0 nsto= 1
    1       1.200000000000        1.000000000000
 38 H     1 shells
 l=0 nsto= 1
    1       1.200000000000        1.000000000000
 39 H     1 shells
 l=0 nsto= 1
    1       1.200000000000        1.000000000000
 40 C     2 shells
 l=0 nsto= 1
    2       1.625000000000        1.000000000000
 l=1 nsto= 1
    2       1.625000000000        1.000000000000
 41 C     2 shells
 l=0 nsto= 1
    2       1.625000000000        1.000000000000
 l=1 nsto= 1
    2       1.625000000000        1.000000000000
 42 C     2 shells
 l=0 nsto= 1
    2       1.625000000000        1.000000000000
 l=1 nsto= 1
    2       1.625000000000        1.000000000000
 43 H     1 shells
 l=0 nsto= 1
    1       1.200000000000        1.000000000000
 44 H     1 shells
 l=0 nsto= 1
    1       1.200000000000        1.000000000000
 45 H     1 shells
 l=0 nsto= 1
    1       1.200000000000        1.000000000000
 46 H     1 shells
 l=0 nsto= 1
    1       1.200000000000        1.000000000000
 47 H     1 shells
 l=0 nsto= 1
    1       1.200000000000        1.000000000000
 48 H     1 shells
 l=0 nsto= 1
    1       1.200000000000        1.000000000000
 49 H     1 shells
 l=0 nsto= 1
    1       1.200000000000        1.000000000000
 50 H     1 shells
 l=0 nsto= 1
    1       1.200000000000        1.000000000000
 51 H     1 shells
 l=0 nsto= 1
    1       1.200000000000        1.000000000000
 52 H     1 shells
 l=0 nsto= 1
    1       1.200000000000        1.000000000000
 53 H     1 shells
 l=0 nsto= 1
    1       1.200000000000        1.000000000000
------------------------------------------------------------------------------
                           ORCA NDO INTEGRAL CALCULATION
------------------------------------------------------------------------------

--------------
NDO PARAMETERS
--------------

Gamma integral treatment              ... Mataga-Nishimoto
Nuclear repulsuion treatment          ... Direct (ZA*ZB/RAB)
Interaction factors:
s-s (sigma) =    1.0000
s-p (sigma) =    1.0000
s-d (sigma) =    1.0000
p-p (sigma) =    1.2670  p-p(pi) =    0.5850
p-d (sigma) =    1.0000  p-d(pi) =    1.0000
d-d (sigma) =    1.0000  d-d(pi) =    1.0000 d-d (delta) =    1.0000

fGamma parameter for Mataga-Nishimoto gamma integrals:    1.2000

--------------------------
Parameters for Element H :
--------------------------
 One-electron parameters (in eV)
  U(s)  =   -13.060000 Beta(s) =    12.000000 Neff(s) =     1.000000
 One-center electron repulsion parameters (in eV)
  G(s,s)=    12.850000
--------------------------
Parameters for Element C :
--------------------------
 One-electron parameters (in eV)
  U(s)  =   -50.870766 Beta(s) =    17.000000 Neff(s) =     2.000000
  U(p)  =   -41.599980 Beta(p) =    17.000000 Neff(p) =     2.000000 
 One-center electron repulsion parameters (in eV)
  G(s,s)=    11.110000
  G(s,p)=    11.110000 G(p,p)  =    11.110000
 Slater-Condon parameters (in eV)
 F2(p,p)=     4.5098 G1(s,p)=    6.8977
--------------------------
Parameters for Element S :
--------------------------
 One-electron parameters (in eV)
  U(s)  =   -69.509597 Beta(s) =    15.000000 Neff(s) =     2.000000
  U(p)  =   -60.725746 Beta(p) =    15.000000 Neff(p) =     4.000000 
 One-center electron repulsion parameters (in eV)
  G(s,s)=    10.090000
  G(s,p)=    10.090000 G(p,p)  =    10.090000
 Slater-Condon parameters (in eV)
 F2(p,p)=     4.5377 G1(s,p)=    3.0756

 Number of atoms                    ....   54
 Number of basis functions          ....  120

 Overlap integrals                  .... done
 One electron matrix                .... done
 Nuclear repulsion                  .... done
 Integral list                      .... done
 Electron-electron repulsion        .... done
-------------------------------------------------------------------------------
                                 ORCA SCF
-------------------------------------------------------------------------------

------------
SCF SETTINGS
------------
Hamiltonian:
 ZDO-Hamiltonian        Method          .... INDO


General Settings:
 Integral files         IntName         .... /Users/mattyjones/GoogleDrive/Boise/Code/MorphCT/tests/output_EZ/donor_polymer/chromophores/input_orca/pair/00008-00026
 Hartree-Fock type      HFTyp           .... RHF
 Total Charge           Charge          ....    0
 Multiplicity           Mult            ....    1
 Number of Electrons    NEL             ....  124
 Basis Dimension        Dim             ....  120
 Nuclear Repulsion      ENuc            ....    633.3214667553 Eh

Convergence Acceleration:
 DIIS                   CNVDIIS         .... on
   Start iteration      DIISMaxIt       ....    12
   Startup error        DIISStart       ....  0.200000
   # of expansion vecs  DIISMaxEq       ....     5
   Bias factor          DIISBfac        ....   1.050
   Max. coefficient     DIISMaxC        ....  10.000
 Newton-Raphson         CNVNR           .... off
 SOSCF                  CNVSOSCF        .... on
   Start iteration      SOSCFMaxIt      ....   150
   Startup grad/error   SOSCFStart      ....  0.003300
 Level Shifting         CNVShift        .... on
   Level shift para.    LevelShift      ....    0.2500
   Turn off err/grad.   ShiftErr        ....    0.0010
 Zerner damping         CNVZerner       .... off
 Static damping         CNVDamp         .... on
   Fraction old density DampFac         ....    0.7000
   Max. Damping (<1)    DampMax         ....    0.9800
   Min. Damping (>=0)   DampMin         ....    0.0000
   Turn off err/grad.   DampErr         ....    0.1000
 Fernandez-Rico         CNVRico         .... off

SCF Procedure:
 Maximum # iterations   MaxIter         ....   125
 SCF integral mode      SCFMode         .... Conventional
 Integral Buffer length BufferLength    .... 1048576
 Integral index format  IndFormat       ....     0
 Integral value format  ValFormat       ....     0
 Integral Storage       Thresh          ....  1.000e-08 Eh

Convergence Tolerance:
 Convergence Check Mode ConvCheckMode   .... Total+1el-Energy
 Energy Change          TolE            ....  1.000e-06 Eh
 1-El. energy change                    ....  1.000e-03 Eh
 Orbital Gradient       TolG            ....  5.000e-05
 Orbital Rotation angle TolX            ....  5.000e-05
 DIIS Error             TolErr          ....  1.000e-06


Diagonalization of the overlap matrix:
Smallest eigenvalue                        ... 1.698e-01
Time for diagonalization                   ...    0.003 sec
Threshold for overlap eigenvalues          ... 1.000e-08
Number of eigenvalues below threshold      ... 0
Time for construction of square roots      ...    0.001 sec
Total time needed                          ...    0.005 sec

-------------------------------
INITIAL GUESS: EXTENDED HUECKEL
-------------------------------
EHT matrix was read from disk
EHT matrix was diagonalized
Initial density was built
                      ------------------
                      INITIAL GUESS DONE
                      ------------------

 InCore treatment chosen:
   Memory dedicated               ...    1024 MB
   Memory needed                  ...      0 MB
   Number of tiny    integrals    ...       0
   Number of small   integrals    ...       0
   Number of regular integrals    ...    7392

--------------
SCF ITERATIONS
--------------
ITER       Energy         Delta-E        Max-DP      RMS-DP      [F,P]     Damp
  0    -22.0160265307   0.000000000000 0.04025087  0.00144106  0.0997801 0.7000
  1    -22.0575322589  -0.041505728282 0.03716221  0.00135582  0.0712322 0.7000
                               ***Turning on DIIS***
  2    -22.0882403942  -0.030708135260 0.09167378  0.00347547  0.0465334 0.0000
  3    -22.1695306126  -0.081290218384 0.01560349  0.00071284  0.0201932 0.0000
  4    -22.1533122184   0.016218394171 0.00977745  0.00048809  0.0059014 0.0000
  5    -22.1702772024  -0.016964984017 0.00639932  0.00033026  0.0033510 0.0000
  6    -22.1728933487  -0.002616146283 0.00457423  0.00023526  0.0017031 0.0000
                      *** Initiating the SOSCF procedure ***
                           *** Shutting down DIIS ***
                      *** Re-Reading the Fockian *** 
                      *** Removing any level shift *** 
ITER      Energy       Delta-E        Grad      Rot      Max-DP    RMS-DP
  7    -22.16877085   0.0041224990  0.003011  0.003011  0.004558  0.000221
  8    -22.16700630   0.0017645538  0.000272  0.000715  0.000496  0.000023
  9    -22.16700791  -0.0000016185  0.000137  0.000549  0.000445  0.000018
                 **** Energy Check signals convergence ****
              ***Rediagonalizing the Fockian in SOSCF/NRSCF***

               *****************************************************
               *                     SUCCESS                       *
               *           SCF CONVERGED AFTER  10 CYCLES          *
               *****************************************************


----------------
TOTAL SCF ENERGY
----------------

Total Energy       :          -22.16700853 Eh            -603.19497 eV

Components:
Nuclear Repulsion  :          633.32146676 Eh           17233.55325 eV
Electronic Energy  :         -655.48847529 Eh          -17836.74822 eV

One Electron Energy:        -1220.53083910 Eh          -33212.33261 eV
Two Electron Energy:          565.04236381 Eh           15375.58440 eV


---------------
SCF CONVERGENCE
---------------

  Last Energy change         ...   -6.1549e-07  Tolerance :   1.0000e-06
  Last MAX-Density change    ...    3.6337e-05  Tolerance :   1.0000e-05
  Last RMS-Density change    ...    2.2071e-06  Tolerance :   1.0000e-06
  Last Orbital Gradient      ...    1.3715e-05  Tolerance :   5.0000e-05
  Last Orbital Rotation      ...    5.7208e-05  Tolerance :   5.0000e-05

             **** THE GBW FILE WAS UPDATED (/Users/mattyjones/GoogleDrive/Boise/Code/MorphCT/tests/output_EZ/donor_polymer/chromophores/input_orca/pair/00008-00026.gbw) ****
             **** DENSITY FILE WAS UPDATED (/Users/mattyjones/GoogleDrive/Boise/Code/MorphCT/tests/output_EZ/donor_polymer/chromophores/input_orca/pair/00008-00026.scfp.tmp) ****
             **** ENERGY FILE WAS UPDATED (/Users/mattyjones/GoogleDrive/Boise/Code/MorphCT/tests/output_EZ/donor_polymer/chromophores/input_orca/pair/00008-00026.en.tmp) ****
----------------
ORBITAL ENERGIES
----------------

  NO   OCC          E(Eh)            E(eV) 
   0   2.0000      -1.556313       -42.3494 
   1   2.0000      -1.556181       -42.3459 
   2   2.0000      -1.409591       -38.3569 
   3   2.0000      -1.396281       -37.9947 
   4   2.0000      -1.291151       -35.1340 
   5   2.0000      -1.285352       -34.9762 
   6   2.0000      -1.188423       -32.3386 
   7   2.0000      -1.174544       -31.9610 
   8   2.0000      -1.112284       -30.2668 
   9   2.0000      -1.109104       -30.1803 
  10   2.0000      -1.045970       -28.4623 
  11   2.0000      -1.032117       -28.0853 
  12   2.0000      -0.968407       -26.3517 
  13   2.0000      -0.965347       -26.2684 
  14   2.0000      -0.910513       -24.7763 
  15   2.0000      -0.891369       -24.2554 
  16   2.0000      -0.868538       -23.6341 
  17   2.0000      -0.835507       -22.7353 
  18   2.0000      -0.831544       -22.6275 
  19   2.0000      -0.828525       -22.5453 
  20   2.0000      -0.776796       -21.1377 
  21   2.0000      -0.771380       -20.9903 
  22   2.0000      -0.735832       -20.0230 
  23   2.0000      -0.732468       -19.9315 
  24   2.0000      -0.701425       -19.0867 
  25   2.0000      -0.693595       -18.8737 
  26   2.0000      -0.687824       -18.7166 
  27   2.0000      -0.676625       -18.4119 
  28   2.0000      -0.648630       -17.6501 
  29   2.0000      -0.633215       -17.2306 
  30   2.0000      -0.613067       -16.6824 
  31   2.0000      -0.612881       -16.6773 
  32   2.0000      -0.599765       -16.3204 
  33   2.0000      -0.588624       -16.0173 
  34   2.0000      -0.577435       -15.7128 
  35   2.0000      -0.577019       -15.7015 
  36   2.0000      -0.565439       -15.3864 
  37   2.0000      -0.559320       -15.2199 
  38   2.0000      -0.553911       -15.0727 
  39   2.0000      -0.544222       -14.8090 
  40   2.0000      -0.534703       -14.5500 
  41   2.0000      -0.531645       -14.4668 
  42   2.0000      -0.521055       -14.1786 
  43   2.0000      -0.515810       -14.0359 
  44   2.0000      -0.509146       -13.8546 
  45   2.0000      -0.504297       -13.7226 
  46   2.0000      -0.497617       -13.5408 
  47   2.0000      -0.491959       -13.3869 
  48   2.0000      -0.489642       -13.3238 
  49   2.0000      -0.485653       -13.2153 
  50   2.0000      -0.481526       -13.1030 
  51   2.0000      -0.479817       -13.0565 
  52   2.0000      -0.472771       -12.8647 
  53   2.0000      -0.469490       -12.7755 
  54   2.0000      -0.464587       -12.6421 
  55   2.0000      -0.464257       -12.6331 
  56   2.0000      -0.441050       -12.0016 
  57   2.0000      -0.437796       -11.9130 
  58   2.0000      -0.357033        -9.7153 
  59   2.0000      -0.356891        -9.7115 
  60   2.0000      -0.304981        -8.2989 
  61   2.0000      -0.304701        -8.2913 
  62   0.0000       0.007502         0.2041 
  63   0.0000       0.007916         0.2154 
  64   0.0000       0.065626         1.7858 
  65   0.0000       0.068081         1.8526 
  66   0.0000       0.075196         2.0462 
  67   0.0000       0.078061         2.1241 
  68   0.0000       0.088701         2.4137 
  69   0.0000       0.090167         2.4536 
  70   0.0000       0.103631         2.8199 
  71   0.0000       0.104810         2.8520 
  72   0.0000       0.107883         2.9356 
  73   0.0000       0.108048         2.9401 
  74   0.0000       0.121922         3.3177 
  75   0.0000       0.124102         3.3770 
  76   0.0000       0.140986         3.8364 
  77   0.0000       0.141907         3.8615 
  78   0.0000       0.155462         4.2303 
  79   0.0000       0.158736         4.3194 
  80   0.0000       0.164022         4.4633 
  81   0.0000       0.165216         4.4957 
  82   0.0000       0.169932         4.6241 
  83   0.0000       0.172315         4.6889 
  84   0.0000       0.204789         5.5726 
  85   0.0000       0.205500         5.5919 
  86   0.0000       0.233125         6.3436 
  87   0.0000       0.233334         6.3493 
  88   0.0000       0.233854         6.3635 
  89   0.0000       0.234179         6.3723 
  90   0.0000       0.236823         6.4443 
  91   0.0000       0.238347         6.4858 
  92   0.0000       0.238814         6.4985 
  93   0.0000       0.240172         6.5354 
  94   0.0000       0.241996         6.5851 
  95   0.0000       0.242084         6.5874 
  96   0.0000       0.243335         6.6215 
  97   0.0000       0.243337         6.6215 
  98   0.0000       0.243607         6.6289 
  99   0.0000       0.244400         6.6505 
 100   0.0000       0.248621         6.7653 
 101   0.0000       0.256040         6.9672 
 102   0.0000       0.257559         7.0085 
 103   0.0000       0.260341         7.0842 
 104   0.0000       0.266722         7.2579 
 105   0.0000       0.267101         7.2682 
 106   0.0000       0.283160         7.7052 
 107   0.0000       0.283673         7.7191 
 108   0.0000       0.298437         8.1209 
 109   0.0000       0.304958         8.2983 
 110   0.0000       0.309905         8.4330 
 111   0.0000       0.310406         8.4466 
 112   0.0000       0.339426         9.2363 
 113   0.0000       0.340586         9.2678 
 114   0.0000       0.353701         9.6247 
 115   0.0000       0.356643         9.7048 
 116   0.0000       0.409286        11.1372 
 117   0.0000       0.412337        11.2203 
 118   0.0000       0.431084        11.7304 
 119   0.0000       0.431770        11.7491 
-------
TIMINGS
-------

Total SCF time: 0 days 0 hours 0 min 0 sec 

Total time                  ....       0.121 sec
Sum of individual times     ....       0.098 sec  ( 81.1%)

Fock matrix formation       ....       0.046 sec  ( 38.0%)
Diagonalization             ....       0.027 sec  ( 22.6%)
Density matrix formation    ....       0.005 sec  (  4.0%)
Population analysis         ....       0.000 sec  (  0.0%)
Initial guess               ....       0.003 sec  (  2.5%)
Orbital Transformation      ....       0.000 sec  (  0.0%)
Orbital Orthonormalization  ....       0.000 sec  (  0.0%)
DIIS solution               ....       0.012 sec  ( 10.0%)
SOSCF solution              ....       0.005 sec  (  4.0%)

-------------------------   --------------------
FINAL SINGLE POINT ENERGY       -22.167008529901
-------------------------   --------------------


                            ***************************************
                            *     ORCA property calculations      *
                            ***************************************

                                    ---------------------
                                    Active property flags
                                    ---------------------
   (+) Dipole Moment


------------------------------------------------------------------------------
                       ORCA ELECTRIC PROPERTIES CALCULATION
------------------------------------------------------------------------------

Dipole Moment Calculation                       ... on
Quadrupole Moment Calculation                   ... off
Polarizability Calculation                      ... off
GBWName                                         ... /Users/mattyjones/GoogleDrive/Boise/Code/MorphCT/tests/output_EZ/donor_polymer/chromophores/input_orca/pair/00008-00026.gbw
Electron density file                           ... /Users/mattyjones/GoogleDrive/Boise/Code/MorphCT/tests/output_EZ/donor_polymer/chromophores/input_orca/pair/00008-00026.scfp.tmp

-------------
DIPOLE MOMENT
-------------
                                X             Y             Z
Electronic contribution:     10.11574      33.09819     -94.06461
Nuclear contribution   :     -6.06934     -18.11990      50.24653
                        -----------------------------------------
Total Dipole Moment    :      4.04640      14.97829     -43.81808
                        -----------------------------------------
Magnitude (a.u.)       :     46.48383
Magnitude (Debye)      :    118.15252


Timings for individual modules:

Sum of individual times         ...        0.216 sec (=   0.004 min)
STO integral calculation        ...        0.049 sec (=   0.001 min)  22.8 %
SCF iterations                  ...        0.167 sec (=   0.003 min)  77.2 %
                             ****ORCA TERMINATED NORMALLY****
TOTAL RUN TIME: 0 days 0 hours 0 minutes 0 seconds 511 msec

