
                                 *****************
                                 * O   R   C   A *
                                 *****************

           --- An Ab Initio, DFT and Semiempirical electronic structure package ---

                  #######################################################
                  #                        -***-                        #
                  #  Department of molecular theory and spectroscopy    #
                  #              Directorship: Frank Neese              #
                  # Max Planck Institute for Chemical Energy Conversion #
                  #                  D-45470 Muelheim/Ruhr              #
                  #                       Germany                       #
                  #                                                     #
                  #                  All rights reserved                #
                  #                        -***-                        #
                  #######################################################


                         Program Version 3.0.3 - RELEASE   -


 With contributions from (in alphabetic order):
   Ute Becker             : Parallelization
   Dmytro Bykov           : SCF Hessian
   Dmitry Ganyushin       : Spin-Orbit,Spin-Spin,Magnetic field MRCI
   Andreas Hansen         : Spin unrestricted coupled pair/coupled cluster methods
   Dimitrios Liakos       : Extrapolation schemes; parallel MDCI
   Robert Izsak           : Overlap fitted RIJCOSX, COSX-SCS-MP3
   Christian Kollmar      : KDIIS, OOCD, Brueckner-CCSD(T), CCSD density
   Simone Kossmann        : Meta GGA functionals, TD-DFT gradient, OOMP2, MP2 Hessian
   Taras Petrenko         : DFT Hessian,TD-DFT gradient, ASA and ECA modules, normal mode analysis, Resonance Raman, ABS, FL, XAS/XES, NRVS
   Christoph Reimann      : Effective Core Potentials
   Michael Roemelt        : Restricted open shell CIS
   Christoph Riplinger    : Improved optimizer, TS searches, QM/MM, DLPNO-CCSD
   Barbara Sandhoefer     : DKH picture change effects
   Igor Schapiro          : Molecular dynamics
   Kantharuban Sivalingam : CASSCF convergence, NEVPT2
   Boris Wezisla          : Elementary symmetry handling
   Frank Wennmohs         : Technical directorship


 We gratefully acknowledge several colleagues who have allowed us to
 interface, adapt or use parts of their codes:
   Stefan Grimme, W. Hujo, H. Kruse, T. Risthaus : VdW corrections, initial TS optimization,
                                                   DFT functionals, gCP
   Ed Valeev                                     : LibInt (2-el integral package), F12 methods
   Garnet Chan, S. Sharma, R. Olivares           : DMRG
   Ulf Ekstrom                                   : XCFun DFT Library
   Mihaly Kallay                                 : mrcc  (arbitrary order and MRCC methods)
   Andreas Klamt, Michael Diedenhofen            : otool_cosmo (COSMO solvation model)
   Frank Weinhold                                : gennbo (NPA and NBO analysis)
   Christopher J. Cramer and Donald G. Truhlar   : smd solvation model


 Your calculation uses the libint2 library for the computation of 2-el integrals
 For citations please refer to: http://libint.valeyev.net

 This ORCA versions uses:
   CBLAS   interface :  Fast vector & matrix operations
   LAPACKE interface :  Fast linear algebra routines
   SCALAPACK package :  Parallel linear algebra routines


leaving
================================================================================
                                        WARNINGS
                       Please study these warnings very carefully!
================================================================================
Now building the actual basis set

WARNING: Direct SCF is incompatible with Method<>HF and Method<>DFT
  ===> : conventional SCF is chosen

WARNING: The NDO methods need Guess=HUECKEL or Guess=HCORE or Guess=MOREAD
  ===> : Guess is set to Hueckel

WARNING: The NDO methods need %rel::SOCType==1
  ===> : %rel::SOCType is set to 1

WARNING: The NDO methods cannot have frozencore=1
  ===> : %method FrozenCore=0 end


INFO   : the flag for use of LIBINT has been found!

================================================================================
                                       INPUT FILE
================================================================================
NAME = /Users/mattyjones/GoogleDrive/Boise/Code/MorphCT/tests/output_EZ/donor_polymer/chromophores/input_orca/pair/00000-00019.inp
|  1> # ================================================================
|  2> # Orca input file made by Matty Jones
|  3> # ================================================================
|  4> ! ZINDO/S 
|  5> ! NOPOP
|  6> ! NOMOPRINT
|  7> * xyz 0   1
|  8>  C  13.37922  14.43061  -5.27833
|  9>  C  13.71343  13.26702  -5.97277
| 10>  C  14.99492  12.73183  -5.63271
| 11>  C  15.67603  13.47658  -4.66485
| 12>  S  14.67101  14.74027  -4.28611
| 13>  H  13.10497  13.00205  -6.90022
| 14>  C  15.37735  11.38659  -6.43750
| 15>  C  14.71736  11.47677  -8.04025
| 16>  C  13.11334  10.83310  -7.97249
| 17>  H  13.34607  9.68958  -8.08378
| 18>  H  12.76204  10.97010  -6.87448
| 19>  H  14.69499  12.55709  -8.41357
| 20>  H  15.35041  10.82406  -8.73718
| 21>  H  14.95480  10.44761  -5.91235
| 22>  H  16.52741  11.28291  -6.54314
| 23>  C  11.77594  11.04625  -8.90842
| 24>  C  11.49360  12.22051  -10.10161
| 25>  C  10.53329  13.53152  -9.64252
| 26>  H  9.48552  13.42020  -10.12409
| 27>  H  11.02208  14.51300  -10.01230
| 28>  H  10.42749  13.55925  -8.49157
| 29>  H  10.96646  11.69865  -10.98476
| 30>  H  12.51352  12.62749  -10.44609
| 31>  H  11.59669  10.03501  -9.45539
| 32>  H  10.89185  11.19075  -8.16219
| 33>  C  -8.54896  -11.21438  5.88783
| 34>  C  -9.58018  -12.05200  6.31545
| 35>  C  -10.65644  -11.36913  6.96323
| 36>  C  -10.47413  -9.98531  7.04755
| 37>  S  -9.01150  -9.68373  6.32632
| 38>  H  -9.56357  -13.18198  6.15354
| 39>  C  -11.83145  -12.36868  7.44269
| 40>  C  -13.45182  -12.19022  7.01752
| 41>  C  -14.50242  -11.34631  8.00638
| 42>  H  -13.92458  -10.49207  8.51926
| 43>  H  -15.34590  -10.89978  7.35533
| 44>  H  -13.46000  -11.66010  5.98748
| 45>  H  -13.87896  -13.25545  6.87799
| 46>  H  -11.83494  -12.36777  8.61485
| 47>  H  -11.56574  -13.46225  7.11892
| 48>  C  -15.13139  -12.33867  9.14082
| 49>  C  -16.46889  -13.27773  8.69529
| 50>  C  -16.11700  -14.84417  8.17977
| 51>  H  -15.38152  -15.33522  8.92630
| 52>  H  -15.64332  -14.81205  7.12588
| 53>  H  -17.09763  -15.45851  8.14473
| 54>  H  -17.01548  -12.73793  7.83650
| 55>  H  -17.16699  -13.35366  9.60892
| 56>  H  -14.30737  -13.07254  9.49448
| 57>  H  -15.46047  -11.69720  10.04693
| 58>  H  12.48756  14.99695  -5.36662
| 59>  H  16.63412  13.27554  -4.25835
| 60>  H  -7.65794  -11.49714  5.38810
| 61>  H  -11.13287  -9.27729  7.48158
| 62> *
| 63> 
| 64>                          ****END OF INPUT****
================================================================================

                       ****************************
                       * Single Point Calculation *
                       ****************************

---------------------------------
CARTESIAN COORDINATES (ANGSTROEM)
---------------------------------
  C     13.379220   14.430610   -5.278330
  C     13.713430   13.267020   -5.972770
  C     14.994920   12.731830   -5.632710
  C     15.676030   13.476580   -4.664850
  S     14.671010   14.740270   -4.286110
  H     13.104970   13.002050   -6.900220
  C     15.377350   11.386590   -6.437500
  C     14.717360   11.476770   -8.040250
  C     13.113340   10.833100   -7.972490
  H     13.346070    9.689580   -8.083780
  H     12.762040   10.970100   -6.874480
  H     14.694990   12.557090   -8.413570
  H     15.350410   10.824060   -8.737180
  H     14.954800   10.447610   -5.912350
  H     16.527410   11.282910   -6.543140
  C     11.775940   11.046250   -8.908420
  C     11.493600   12.220510  -10.101610
  C     10.533290   13.531520   -9.642520
  H      9.485520   13.420200  -10.124090
  H     11.022080   14.513000  -10.012300
  H     10.427490   13.559250   -8.491570
  H     10.966460   11.698650  -10.984760
  H     12.513520   12.627490  -10.446090
  H     11.596690   10.035010   -9.455390
  H     10.891850   11.190750   -8.162190
  C     -8.548960  -11.214380    5.887830
  C     -9.580180  -12.052000    6.315450
  C    -10.656440  -11.369130    6.963230
  C    -10.474130   -9.985310    7.047550
  S     -9.011500   -9.683730    6.326320
  H     -9.563570  -13.181980    6.153540
  C    -11.831450  -12.368680    7.442690
  C    -13.451820  -12.190220    7.017520
  C    -14.502420  -11.346310    8.006380
  H    -13.924580  -10.492070    8.519260
  H    -15.345900  -10.899780    7.355330
  H    -13.460000  -11.660100    5.987480
  H    -13.878960  -13.255450    6.877990
  H    -11.834940  -12.367770    8.614850
  H    -11.565740  -13.462250    7.118920
  C    -15.131390  -12.338670    9.140820
  C    -16.468890  -13.277730    8.695290
  C    -16.117000  -14.844170    8.179770
  H    -15.381520  -15.335220    8.926300
  H    -15.643320  -14.812050    7.125880
  H    -17.097630  -15.458510    8.144730
  H    -17.015480  -12.737930    7.836500
  H    -17.166990  -13.353660    9.608920
  H    -14.307370  -13.072540    9.494480
  H    -15.460470  -11.697200   10.046930
  H     12.487560   14.996950   -5.366620
  H     16.634120   13.275540   -4.258350
  H     -7.657940  -11.497140    5.388100
  H    -11.132870   -9.277290    7.481580

----------------------------
CARTESIAN COORDINATES (A.U.)
----------------------------
  NO LB      ZA    FRAG    MASS        X           Y           Z
   0 C     4.0000    0    12.011         25.283061685481890         27.269900845425354         -9.974598144460561
   1 C     4.0000    0    12.011         25.914627056699711         25.071034413255926        -11.286899560900833
   2 C     4.0000    0    12.011         28.336292200058455         24.059671883642611        -10.644279291799574
   3 C     4.0000    0    12.011         29.623403567133561         25.467045421880464         -8.815288955822551
   4 S     6.0000    0    32.060         27.724191008020025         27.855073440055410         -8.099574079861215
   5 H     1.0000    0     1.008         24.764804293253984         24.570313679550811        -13.039526063806099
   6 C     4.0000    0    12.011         29.058980165453960         21.517536699246385        -12.165111987118058
   7 C     4.0000    0    12.011         27.811779814327270         21.687952202003405        -15.193870548260344
   8 C     4.0000    0    12.011         24.780621300994909         20.471592181382313        -15.065822705425839
   9 H     1.0000    0     1.008         25.220417264142398         18.310652552720679        -15.276130326869938
  10 H     1.0000    0     1.008         24.116760510148371         20.730484661729523        -12.990884513118967
  11 H     1.0000    0     1.008         27.769506640711455         23.729461139001209        -15.899343108575826
  12 H     1.0000    0     1.008         29.008070943406121         20.454509057131663        -16.510877382774083
  13 H     1.0000    0     1.008         28.260476387565536         19.743121654017006        -11.172722307889313
  14 H     1.0000    0     1.008         31.232278603031432         21.321609893681430        -12.364742655905498
  15 C     4.0000    0    12.011         22.253301569488624         20.874387306827629        -16.834474085946756
  16 C     4.0000    0    12.011         21.719756292837300         23.093417116845998        -19.089276411680256
  17 C     4.0000    0    12.011         19.905033389171379         25.570866975678097        -18.221722040858346
  18 H     1.0000    0     1.008         17.925035037832711         25.360502662449981        -19.131757455170806
  19 H     1.0000    0     1.008         20.828712626170752         27.425595381599127        -18.920504970659749
  20 H     1.0000    0     1.008         19.705100364202515         25.623269081371731        -16.046741747021681
  21 H     1.0000    0     1.008         20.723606058602048         22.107244636597851        -20.758188046852808
  22 H     1.0000    0     1.008         23.647125771346261         23.862497858829265        -19.740249270293447
  23 H     1.0000    0     1.008         21.914568159983240         18.963420651161098        -17.868097589417662
  24 H     1.0000    0     1.008         20.582613591750185         21.147452733179247        -15.424303753030703
  25 C     4.0000    0    12.011        -16.155193129847422        -21.192106961723805         11.126386223085563
  26 C     4.0000    0    12.011        -18.103916513669699        -22.774979366018925         11.934470912472969
  27 C     4.0000    0    12.011        -20.137753162563783        -21.484542080948120         13.158597707504478
  28 C     4.0000    0    12.011        -19.793237191088600        -18.869501262305214         13.317939415116717
  29 S     6.0000    0    32.060        -17.029267055831358        -18.299597654837243         11.955012235548693
  30 H     1.0000    0     1.008        -18.072528162585265        -24.910332102827258         11.628505354129778
  31 C     4.0000    0    12.011        -22.358200267182593        -23.373417838109106         14.064645799674361
  32 C     4.0000    0    12.011        -25.420255802804572        -23.036177312249521         13.261190939315062
  33 C     4.0000    0    12.011        -27.405602079102241        -21.441418530572040         15.129865524104432
  34 H     1.0000    0     1.008        -26.313642729877184        -19.827138877931148         16.099068263669960
  35 H     1.0000    0     1.008        -28.999548278542136        -20.597599119992179         13.899559324615002
  36 H     1.0000    0     1.008        -25.435713762580050        -22.034395694135185         11.314697432330815
  37 H     1.0000    0     1.008        -26.227433423647692        -25.049170281886454         12.997517451849030
  38 H     1.0000    0     1.008        -22.364795411389977        -23.371698187327240         16.279707184811496
  39 H     1.0000    0     1.008        -21.856081136138378        -25.439965646381367         13.452809169294676
  40 C     4.0000    0    12.011        -28.594183125554686        -23.316707156830130         17.273646439470056
  41 C     4.0000    0    12.011        -31.121691829674358        -25.091273380150220         16.431716755024119
  42 C     4.0000    0    12.011        -30.456716100408816        -28.051415985369825         15.457525138465035
  43 H     1.0000    0     1.008        -29.066860323432412        -28.979366003431856         16.868262389221268
  44 H     1.0000    0     1.008        -29.561590625292993        -27.990717981948276         13.465961663186770
  45 H     1.0000    0     1.008        -32.309838239116004        -29.212350338483009         15.391309134732435
  46 H     1.0000    0     1.008        -32.154597237214382        -24.071199213059529         14.808838848473888
  47 H     1.0000    0     1.008        -32.440909643764783        -25.234760285498862         18.158227242758592
  48 H     1.0000    0     1.008        -27.037010996680898        -24.703520474730919         17.941966983992643
  49 H     1.0000    0     1.008        -29.216054201705496        -22.104504533703665         18.985946186677442
  50 H     1.0000    0     1.008         23.598068480909667         28.340128344110315        -10.141442064824467
  51 H     1.0000    0     1.008         31.433931278782168         25.087134879916931         -8.047115282383562
  52 H     1.0000    0     1.008        -14.471409350000910        -21.726445923351378         10.182033382181096
  53 H     1.0000    0     1.008        -21.038075384547884        -17.531537364966290         14.138137249022558

--------------------------------
INTERNAL COORDINATES (ANGSTROEM)
--------------------------------
 C      0   0   0   0.000000     0.000     0.000
 C      1   0   0   1.395666     0.000     0.000
 C      2   1   0   1.429785   114.102     0.000
 C      3   2   1   1.398326   113.693     0.000
 S      1   2   3   1.658044   105.480     0.000
 H      2   1   3   1.140437   118.073   195.319
 C      3   2   1   1.613571   113.946   179.990
 C      7   3   2   1.735663   109.095    34.394
 C      8   7   3   1.729677   107.285   271.669
 H      9   8   7   1.172257   100.089   275.528
 H      9   8   7   1.160951   105.888    24.826
 H      8   7   3   1.143223   110.982    32.185
 H      8   7   3   1.145641   108.786   153.989
 H      7   3   2   1.155861   111.347   274.262
 H      7   3   2   1.159546   110.797   152.326
 C      9   8   7   1.646219   133.073   156.109
 C     16   9   8   1.697735   128.626   347.434
 C     17  16   9   1.688700   116.134   259.070
 H     18  17  16   1.158501   109.069   254.119
 H     18  17  16   1.157133   109.354   134.628
 H     18  17  16   1.156135   109.956    14.169
 H     17  16   9   1.153329   107.531   138.746
 H     17  16   9   1.150885   107.913    20.564
 H     16   9   8   1.163578   106.253   111.473
 H     16   9   8   1.165914   105.557   224.841
 C     25  16   9  32.822828   129.680   271.685
 C     26  25  16   1.395665   168.086   248.880
 C     27  26  25   1.429778   114.102   297.082
 C     28  27  26   1.398322   113.693     0.000
 S     26  25  16   1.658043    69.407   182.442
 H     27  26  30   1.141642   122.672   179.629
 C     28  27  26   1.615435   112.735   179.934
 C     32  28  27   1.684701   123.996   234.488
 C     33  32  28   1.671463   120.579   267.115
 H     34  33  32   1.151812   108.818    33.387
 H     34  33  32   1.155298   108.702   152.337
 H     33  32  28   1.158480   106.240    28.691
 H     33  32  28   1.156128   106.751   143.950
 H     32  28  27   1.172166   107.367   112.744
 H     32  28  27   1.171036   109.312   358.029
 C     34  33  32   1.633198   110.257   273.222
 C     41  34  33   1.693882   117.274   276.740
 C     42  41  34   1.686215   115.508    95.321
 H     43  42  41   1.157311   109.243    47.272
 H     43  42  41   1.155893   109.783   286.762
 H     43  42  41   1.157703   108.993   166.796
 H     42  41  34   1.152243   108.113   334.445
 H     42  41  34   1.152315   107.839   216.092
 H     41  34  33   1.158728   108.842    38.173
 H     41  34  33   1.157935   108.445   155.799
 H      1   2   3   1.059997   127.260   180.000
 H      4   3   2   1.059998   127.206   180.000
 H     26  25  16   1.060000    58.829    12.966
 H     29  28  27   1.060006   127.206   180.001

---------------------------
INTERNAL COORDINATES (A.U.)
---------------------------
 C      0   0   0   0.000000     0.000     0.000
 C      1   0   0   2.637427     0.000     0.000
 C      2   1   0   2.701902   114.102     0.000
 C      3   2   1   2.642454   113.693     0.000
 S      1   2   3   3.133250   105.480     0.000
 H      2   1   3   2.155113   118.073   195.319
 C      3   2   1   3.049207   113.946   179.990
 C      7   3   2   3.279928   109.095    34.394
 C      8   7   3   3.268616   107.285   271.669
 H      9   8   7   2.215245   100.089   275.528
 H      9   8   7   2.193879   105.888    24.826
 H      8   7   3   2.160379   110.982    32.185
 H      8   7   3   2.164948   108.786   153.989
 H      7   3   2   2.184261   111.347   274.262
 H      7   3   2   2.191225   110.797   152.326
 C      9   8   7   3.110903   133.073   156.109
 C     16   9   8   3.208255   128.626   347.434
 C     17  16   9   3.191180   116.134   259.070
 H     18  17  16   2.189249   109.069   254.119
 H     18  17  16   2.186664   109.354   134.628
 H     18  17  16   2.184779   109.956    14.169
 H     17  16   9   2.179476   107.531   138.746
 H     17  16   9   2.174857   107.913    20.564
 H     16   9   8   2.198843   106.253   111.473
 H     16   9   8   2.203257   105.557   224.841
 C     25  16   9  62.026155   129.680   271.685
 C     26  25  16   2.637425   168.086   248.880
 C     27  26  25   2.701889   114.102   297.082
 C     28  27  26   2.642446   113.693     0.000
 S     26  25  16   3.133247    69.407   182.442
 H     27  26  30   2.157390   122.672   179.629
 C     28  27  26   3.052730   112.735   179.934
 C     32  28  27   3.183623   123.996   234.488
 C     33  32  28   3.158607   120.579   267.115
 H     34  33  32   2.176609   108.818    33.387
 H     34  33  32   2.183197   108.702   152.337
 H     33  32  28   2.189210   106.240    28.691
 H     33  32  28   2.184765   106.751   143.950
 H     32  28  27   2.215072   107.367   112.744
 H     32  28  27   2.212936   109.312   358.029
 C     34  33  32   3.086297   110.257   273.222
 C     41  34  33   3.200973   117.274   276.740
 C     42  41  34   3.186485   115.508    95.321
 H     43  42  41   2.187000   109.243    47.272
 H     43  42  41   2.184321   109.783   286.762
 H     43  42  41   2.187742   108.993   166.796
 H     42  41  34   2.177425   108.113   334.445
 H     42  41  34   2.177559   107.839   216.092
 H     41  34  33   2.189678   108.842    38.173
 H     41  34  33   2.188179   108.445   155.799
 H      1   2   3   2.003104   127.260   180.000
 H      4   3   2   2.003106   127.206   180.000
 H     26  25  16   2.003110    58.829    12.966
 H     29  28  27   2.003121   127.206   180.001

----------------------------
SLATER BASIS SET DIM= 120
----------------------------
  0 C     2 shells
 l=0 nsto= 1
    2       1.625000000000        1.000000000000
 l=1 nsto= 1
    2       1.625000000000        1.000000000000
  1 C     2 shells
 l=0 nsto= 1
    2       1.625000000000        1.000000000000
 l=1 nsto= 1
    2       1.625000000000        1.000000000000
  2 C     2 shells
 l=0 nsto= 1
    2       1.625000000000        1.000000000000
 l=1 nsto= 1
    2       1.625000000000        1.000000000000
  3 C     2 shells
 l=0 nsto= 1
    2       1.625000000000        1.000000000000
 l=1 nsto= 1
    2       1.625000000000        1.000000000000
  4 S     2 shells
 l=0 nsto= 1
    3       1.925000000000        1.000000000000
 l=1 nsto= 1
    3       1.925000000000        1.000000000000
  5 H     1 shells
 l=0 nsto= 1
    1       1.200000000000        1.000000000000
  6 C     2 shells
 l=0 nsto= 1
    2       1.625000000000        1.000000000000
 l=1 nsto= 1
    2       1.625000000000        1.000000000000
  7 C     2 shells
 l=0 nsto= 1
    2       1.625000000000        1.000000000000
 l=1 nsto= 1
    2       1.625000000000        1.000000000000
  8 C     2 shells
 l=0 nsto= 1
    2       1.625000000000        1.000000000000
 l=1 nsto= 1
    2       1.625000000000        1.000000000000
  9 H     1 shells
 l=0 nsto= 1
    1       1.200000000000        1.000000000000
 10 H     1 shells
 l=0 nsto= 1
    1       1.200000000000        1.000000000000
 11 H     1 shells
 l=0 nsto= 1
    1       1.200000000000        1.000000000000
 12 H     1 shells
 l=0 nsto= 1
    1       1.200000000000        1.000000000000
 13 H     1 shells
 l=0 nsto= 1
    1       1.200000000000        1.000000000000
 14 H     1 shells
 l=0 nsto= 1
    1       1.200000000000        1.000000000000
 15 C     2 shells
 l=0 nsto= 1
    2       1.625000000000        1.000000000000
 l=1 nsto= 1
    2       1.625000000000        1.000000000000
 16 C     2 shells
 l=0 nsto= 1
    2       1.625000000000        1.000000000000
 l=1 nsto= 1
    2       1.625000000000        1.000000000000
 17 C     2 shells
 l=0 nsto= 1
    2       1.625000000000        1.000000000000
 l=1 nsto= 1
    2       1.625000000000        1.000000000000
 18 H     1 shells
 l=0 nsto= 1
    1       1.200000000000        1.000000000000
 19 H     1 shells
 l=0 nsto= 1
    1       1.200000000000        1.000000000000
 20 H     1 shells
 l=0 nsto= 1
    1       1.200000000000        1.000000000000
 21 H     1 shells
 l=0 nsto= 1
    1       1.200000000000        1.000000000000
 22 H     1 shells
 l=0 nsto= 1
    1       1.200000000000        1.000000000000
 23 H     1 shells
 l=0 nsto= 1
    1       1.200000000000        1.000000000000
 24 H     1 shells
 l=0 nsto= 1
    1       1.200000000000        1.000000000000
 25 C     2 shells
 l=0 nsto= 1
    2       1.625000000000        1.000000000000
 l=1 nsto= 1
    2       1.625000000000        1.000000000000
 26 C     2 shells
 l=0 nsto= 1
    2       1.625000000000        1.000000000000
 l=1 nsto= 1
    2       1.625000000000        1.000000000000
 27 C     2 shells
 l=0 nsto= 1
    2       1.625000000000        1.000000000000
 l=1 nsto= 1
    2       1.625000000000        1.000000000000
 28 C     2 shells
 l=0 nsto= 1
    2       1.625000000000        1.000000000000
 l=1 nsto= 1
    2       1.625000000000        1.000000000000
 29 S     2 shells
 l=0 nsto= 1
    3       1.925000000000        1.000000000000
 l=1 nsto= 1
    3       1.925000000000        1.000000000000
 30 H     1 shells
 l=0 nsto= 1
    1       1.200000000000        1.000000000000
 31 C     2 shells
 l=0 nsto= 1
    2       1.625000000000        1.000000000000
 l=1 nsto= 1
    2       1.625000000000        1.000000000000
 32 C     2 shells
 l=0 nsto= 1
    2       1.625000000000        1.000000000000
 l=1 nsto= 1
    2       1.625000000000        1.000000000000
 33 C     2 shells
 l=0 nsto= 1
    2       1.625000000000        1.000000000000
 l=1 nsto= 1
    2       1.625000000000        1.000000000000
 34 H     1 shells
 l=0 nsto= 1
    1       1.200000000000        1.000000000000
 35 H     1 shells
 l=0 nsto= 1
    1       1.200000000000        1.000000000000
 36 H     1 shells
 l=0 nsto= 1
    1       1.200000000000        1.000000000000
 37 H     1 shells
 l=0 nsto= 1
    1       1.200000000000        1.000000000000
 38 H     1 shells
 l=0 nsto= 1
    1       1.200000000000        1.000000000000
 39 H     1 shells
 l=0 nsto= 1
    1       1.200000000000        1.000000000000
 40 C     2 shells
 l=0 nsto= 1
    2       1.625000000000        1.000000000000
 l=1 nsto= 1
    2       1.625000000000        1.000000000000
 41 C     2 shells
 l=0 nsto= 1
    2       1.625000000000        1.000000000000
 l=1 nsto= 1
    2       1.625000000000        1.000000000000
 42 C     2 shells
 l=0 nsto= 1
    2       1.625000000000        1.000000000000
 l=1 nsto= 1
    2       1.625000000000        1.000000000000
 43 H     1 shells
 l=0 nsto= 1
    1       1.200000000000        1.000000000000
 44 H     1 shells
 l=0 nsto= 1
    1       1.200000000000        1.000000000000
 45 H     1 shells
 l=0 nsto= 1
    1       1.200000000000        1.000000000000
 46 H     1 shells
 l=0 nsto= 1
    1       1.200000000000        1.000000000000
 47 H     1 shells
 l=0 nsto= 1
    1       1.200000000000        1.000000000000
 48 H     1 shells
 l=0 nsto= 1
    1       1.200000000000        1.000000000000
 49 H     1 shells
 l=0 nsto= 1
    1       1.200000000000        1.000000000000
 50 H     1 shells
 l=0 nsto= 1
    1       1.200000000000        1.000000000000
 51 H     1 shells
 l=0 nsto= 1
    1       1.200000000000        1.000000000000
 52 H     1 shells
 l=0 nsto= 1
    1       1.200000000000        1.000000000000
 53 H     1 shells
 l=0 nsto= 1
    1       1.200000000000        1.000000000000
------------------------------------------------------------------------------
                           ORCA NDO INTEGRAL CALCULATION
------------------------------------------------------------------------------

--------------
NDO PARAMETERS
--------------

Gamma integral treatment              ... Mataga-Nishimoto
Nuclear repulsuion treatment          ... Direct (ZA*ZB/RAB)
Interaction factors:
s-s (sigma) =    1.0000
s-p (sigma) =    1.0000
s-d (sigma) =    1.0000
p-p (sigma) =    1.2670  p-p(pi) =    0.5850
p-d (sigma) =    1.0000  p-d(pi) =    1.0000
d-d (sigma) =    1.0000  d-d(pi) =    1.0000 d-d (delta) =    1.0000

fGamma parameter for Mataga-Nishimoto gamma integrals:    1.2000

--------------------------
Parameters for Element H :
--------------------------
 One-electron parameters (in eV)
  U(s)  =   -13.060000 Beta(s) =    12.000000 Neff(s) =     1.000000
 One-center electron repulsion parameters (in eV)
  G(s,s)=    12.850000
--------------------------
Parameters for Element C :
--------------------------
 One-electron parameters (in eV)
  U(s)  =   -50.870766 Beta(s) =    17.000000 Neff(s) =     2.000000
  U(p)  =   -41.599980 Beta(p) =    17.000000 Neff(p) =     2.000000 
 One-center electron repulsion parameters (in eV)
  G(s,s)=    11.110000
  G(s,p)=    11.110000 G(p,p)  =    11.110000
 Slater-Condon parameters (in eV)
 F2(p,p)=     4.5098 G1(s,p)=    6.8977
--------------------------
Parameters for Element S :
--------------------------
 One-electron parameters (in eV)
  U(s)  =   -69.509597 Beta(s) =    15.000000 Neff(s) =     2.000000
  U(p)  =   -60.725746 Beta(p) =    15.000000 Neff(p) =     4.000000 
 One-center electron repulsion parameters (in eV)
  G(s,s)=    10.090000
  G(s,p)=    10.090000 G(p,p)  =    10.090000
 Slater-Condon parameters (in eV)
 F2(p,p)=     4.5377 G1(s,p)=    3.0756

 Number of atoms                    ....   54
 Number of basis functions          ....  120

 Overlap integrals                  .... done
 One electron matrix                .... done
 Nuclear repulsion                  .... done
 Integral list                      .... done
 Electron-electron repulsion        .... done
-------------------------------------------------------------------------------
                                 ORCA SCF
-------------------------------------------------------------------------------

------------
SCF SETTINGS
------------
Hamiltonian:
 ZDO-Hamiltonian        Method          .... INDO


General Settings:
 Integral files         IntName         .... /Users/mattyjones/GoogleDrive/Boise/Code/MorphCT/tests/output_EZ/donor_polymer/chromophores/input_orca/pair/00000-00019
 Hartree-Fock type      HFTyp           .... RHF
 Total Charge           Charge          ....    0
 Multiplicity           Mult            ....    1
 Number of Electrons    NEL             ....  124
 Basis Dimension        Dim             ....  120
 Nuclear Repulsion      ENuc            ....    653.7658047664 Eh

Convergence Acceleration:
 DIIS                   CNVDIIS         .... on
   Start iteration      DIISMaxIt       ....    12
   Startup error        DIISStart       ....  0.200000
   # of expansion vecs  DIISMaxEq       ....     5
   Bias factor          DIISBfac        ....   1.050
   Max. coefficient     DIISMaxC        ....  10.000
 Newton-Raphson         CNVNR           .... off
 SOSCF                  CNVSOSCF        .... on
   Start iteration      SOSCFMaxIt      ....   150
   Startup grad/error   SOSCFStart      ....  0.003300
 Level Shifting         CNVShift        .... on
   Level shift para.    LevelShift      ....    0.2500
   Turn off err/grad.   ShiftErr        ....    0.0010
 Zerner damping         CNVZerner       .... off
 Static damping         CNVDamp         .... on
   Fraction old density DampFac         ....    0.7000
   Max. Damping (<1)    DampMax         ....    0.9800
   Min. Damping (>=0)   DampMin         ....    0.0000
   Turn off err/grad.   DampErr         ....    0.1000
 Fernandez-Rico         CNVRico         .... off

SCF Procedure:
 Maximum # iterations   MaxIter         ....   125
 SCF integral mode      SCFMode         .... Conventional
 Integral Buffer length BufferLength    .... 1048576
 Integral index format  IndFormat       ....     0
 Integral value format  ValFormat       ....     0
 Integral Storage       Thresh          ....  1.000e-08 Eh

Convergence Tolerance:
 Convergence Check Mode ConvCheckMode   .... Total+1el-Energy
 Energy Change          TolE            ....  1.000e-06 Eh
 1-El. energy change                    ....  1.000e-03 Eh
 Orbital Gradient       TolG            ....  5.000e-05
 Orbital Rotation angle TolX            ....  5.000e-05
 DIIS Error             TolErr          ....  1.000e-06


Diagonalization of the overlap matrix:
Smallest eigenvalue                        ... 1.695e-01
Time for diagonalization                   ...    0.003 sec
Threshold for overlap eigenvalues          ... 1.000e-08
Number of eigenvalues below threshold      ... 0
Time for construction of square roots      ...    0.001 sec
Total time needed                          ...    0.004 sec

-------------------------------
INITIAL GUESS: EXTENDED HUECKEL
-------------------------------
EHT matrix was read from disk
EHT matrix was diagonalized
Initial density was built
                      ------------------
                      INITIAL GUESS DONE
                      ------------------

 InCore treatment chosen:
   Memory dedicated               ...    1024 MB
   Memory needed                  ...      0 MB
   Number of tiny    integrals    ...       0
   Number of small   integrals    ...       0
   Number of regular integrals    ...    7392

--------------
SCF ITERATIONS
--------------
ITER       Energy         Delta-E        Max-DP      RMS-DP      [F,P]     Damp
  0    -18.3595542187   0.000000000000 0.04318285  0.00144467  0.1047486 0.7000
  1    -18.4013989835  -0.041844764805 0.04163695  0.00136206  0.0716179 0.7000
                               ***Turning on DIIS***
  2    -18.4323925770  -0.030993593532 0.10832947  0.00350039  0.0433084 0.0000
  3    -18.5133025731  -0.080909996090 0.01878008  0.00072790  0.0200490 0.0000
  4    -18.4984521446   0.014850428496 0.01341196  0.00050076  0.0073325 0.0000
  5    -18.5157280401  -0.017275895446 0.00938857  0.00033772  0.0043484 0.0000
  6    -18.5182457048  -0.002517664762 0.00697125  0.00023913  0.0025318 0.0000
                      *** Initiating the SOSCF procedure ***
                           *** Shutting down DIIS ***
                      *** Re-Reading the Fockian *** 
                      *** Removing any level shift *** 
ITER      Energy       Delta-E        Grad      Rot      Max-DP    RMS-DP
  7    -18.51406272   0.0041829799  0.003027  0.003027  0.004165  0.000135
  8    -18.51202710   0.0020356232  0.000818  0.002264  0.002072  0.000063
  9    -18.51204192  -0.0000148165  0.000365  0.002240  0.002321  0.000067
 10    -18.51204735  -0.0000054274  0.000031  0.000087  0.000142  0.000005
                 **** Energy Check signals convergence ****
              ***Rediagonalizing the Fockian in SOSCF/NRSCF***

               *****************************************************
               *                     SUCCESS                       *
               *           SCF CONVERGED AFTER  11 CYCLES          *
               *****************************************************


----------------
TOTAL SCF ENERGY
----------------

Total Energy       :          -18.51204740 Eh            -503.73842 eV

Components:
Nuclear Repulsion  :          653.76580477 Eh           17789.87197 eV
Electronic Energy  :         -672.27785217 Eh          -18293.61039 eV

One Electron Energy:        -1254.17231555 Eh          -34127.76373 eV
Two Electron Energy:          581.89446338 Eh           15834.15334 eV


---------------
SCF CONVERGENCE
---------------

  Last Energy change         ...   -5.4165e-08  Tolerance :   1.0000e-06
  Last MAX-Density change    ...    5.8741e-05  Tolerance :   1.0000e-05
  Last RMS-Density change    ...    1.5218e-06  Tolerance :   1.0000e-06
  Last Orbital Gradient      ...    1.2138e-05  Tolerance :   5.0000e-05
  Last Orbital Rotation      ...    2.5518e-05  Tolerance :   5.0000e-05

             **** THE GBW FILE WAS UPDATED (/Users/mattyjones/GoogleDrive/Boise/Code/MorphCT/tests/output_EZ/donor_polymer/chromophores/input_orca/pair/00000-00019.gbw) ****
             **** DENSITY FILE WAS UPDATED (/Users/mattyjones/GoogleDrive/Boise/Code/MorphCT/tests/output_EZ/donor_polymer/chromophores/input_orca/pair/00000-00019.scfp.tmp) ****
             **** ENERGY FILE WAS UPDATED (/Users/mattyjones/GoogleDrive/Boise/Code/MorphCT/tests/output_EZ/donor_polymer/chromophores/input_orca/pair/00000-00019.en.tmp) ****
----------------
ORBITAL ENERGIES
----------------

  NO   OCC          E(Eh)            E(eV) 
   0   2.0000      -1.565892       -42.6101 
   1   2.0000      -1.558135       -42.3990 
   2   2.0000      -1.412945       -38.4482 
   3   2.0000      -1.384722       -37.6802 
   4   2.0000      -1.302074       -35.4312 
   5   2.0000      -1.281387       -34.8683 
   6   2.0000      -1.179172       -32.0869 
   7   2.0000      -1.176549       -32.0155 
   8   2.0000      -1.120590       -30.4928 
   9   2.0000      -1.115579       -30.3565 
  10   2.0000      -1.060321       -28.8528 
  11   2.0000      -1.022898       -27.8345 
  12   2.0000      -0.968082       -26.3429 
  13   2.0000      -0.956281       -26.0217 
  14   2.0000      -0.926689       -25.2165 
  15   2.0000      -0.894856       -24.3503 
  16   2.0000      -0.855087       -23.2681 
  17   2.0000      -0.843445       -22.9513 
  18   2.0000      -0.833097       -22.6697 
  19   2.0000      -0.825760       -22.4701 
  20   2.0000      -0.783889       -21.3307 
  21   2.0000      -0.776273       -21.1235 
  22   2.0000      -0.746679       -20.3182 
  23   2.0000      -0.724589       -19.7171 
  24   2.0000      -0.709628       -19.3100 
  25   2.0000      -0.684582       -18.6284 
  26   2.0000      -0.674370       -18.3505 
  27   2.0000      -0.674087       -18.3428 
  28   2.0000      -0.639742       -17.4083 
  29   2.0000      -0.634487       -17.2653 
  30   2.0000      -0.612546       -16.6682 
  31   2.0000      -0.596523       -16.2322 
  32   2.0000      -0.593412       -16.1476 
  33   2.0000      -0.589836       -16.0503 
  34   2.0000      -0.576087       -15.6761 
  35   2.0000      -0.575315       -15.6551 
  36   2.0000      -0.573908       -15.6168 
  37   2.0000      -0.561858       -15.2889 
  38   2.0000      -0.557427       -15.1684 
  39   2.0000      -0.550305       -14.9746 
  40   2.0000      -0.537744       -14.6328 
  41   2.0000      -0.534135       -14.5345 
  42   2.0000      -0.528290       -14.3755 
  43   2.0000      -0.522514       -14.2183 
  44   2.0000      -0.505706       -13.7610 
  45   2.0000      -0.504985       -13.7413 
  46   2.0000      -0.495019       -13.4702 
  47   2.0000      -0.490374       -13.3438 
  48   2.0000      -0.489415       -13.3177 
  49   2.0000      -0.487201       -13.2574 
  50   2.0000      -0.479029       -13.0351 
  51   2.0000      -0.474676       -12.9166 
  52   2.0000      -0.468552       -12.7499 
  53   2.0000      -0.463040       -12.5999 
  54   2.0000      -0.456882       -12.4324 
  55   2.0000      -0.446232       -12.1426 
  56   2.0000      -0.436906       -11.8888 
  57   2.0000      -0.433515       -11.7965 
  58   2.0000      -0.356717        -9.7068 
  59   2.0000      -0.352444        -9.5905 
  60   2.0000      -0.305050        -8.3008 
  61   2.0000      -0.304177        -8.2771 
  62   0.0000       0.007529         0.2049 
  63   0.0000       0.008824         0.2401 
  64   0.0000       0.065377         1.7790 
  65   0.0000       0.069395         1.8883 
  66   0.0000       0.071005         1.9322 
  67   0.0000       0.077756         2.1158 
  68   0.0000       0.085716         2.3325 
  69   0.0000       0.085988         2.3398 
  70   0.0000       0.099978         2.7205 
  71   0.0000       0.104882         2.8540 
  72   0.0000       0.108536         2.9534 
  73   0.0000       0.108798         2.9606 
  74   0.0000       0.122477         3.3328 
  75   0.0000       0.123322         3.3558 
  76   0.0000       0.139296         3.7904 
  77   0.0000       0.141667         3.8550 
  78   0.0000       0.158431         4.3111 
  79   0.0000       0.160485         4.3670 
  80   0.0000       0.164630         4.4798 
  81   0.0000       0.165861         4.5133 
  82   0.0000       0.166665         4.5352 
  83   0.0000       0.176909         4.8139 
  84   0.0000       0.203845         5.5469 
  85   0.0000       0.204495         5.5646 
  86   0.0000       0.228640         6.2216 
  87   0.0000       0.230777         6.2798 
  88   0.0000       0.233677         6.3587 
  89   0.0000       0.235126         6.3981 
  90   0.0000       0.236324         6.4307 
  91   0.0000       0.236467         6.4346 
  92   0.0000       0.236591         6.4380 
  93   0.0000       0.238267         6.4836 
  94   0.0000       0.238603         6.4927 
  95   0.0000       0.241022         6.5585 
  96   0.0000       0.242406         6.5962 
  97   0.0000       0.243253         6.6192 
  98   0.0000       0.244320         6.6483 
  99   0.0000       0.245022         6.6674 
 100   0.0000       0.245567         6.6822 
 101   0.0000       0.250942         6.8285 
 102   0.0000       0.255745         6.9592 
 103   0.0000       0.259735         7.0678 
 104   0.0000       0.267073         7.2674 
 105   0.0000       0.267617         7.2822 
 106   0.0000       0.270085         7.3494 
 107   0.0000       0.284988         7.7549 
 108   0.0000       0.294473         8.0130 
 109   0.0000       0.307003         8.3540 
 110   0.0000       0.311141         8.4666 
 111   0.0000       0.311151         8.4668 
 112   0.0000       0.337487         9.1835 
 113   0.0000       0.339017         9.2251 
 114   0.0000       0.349865         9.5203 
 115   0.0000       0.365694         9.9510 
 116   0.0000       0.420420        11.4402 
 117   0.0000       0.420656        11.4466 
 118   0.0000       0.425012        11.5652 
 119   0.0000       0.428737        11.6665 
-------
TIMINGS
-------

Total SCF time: 0 days 0 hours 0 min 0 sec 

Total time                  ....       0.165 sec
Sum of individual times     ....       0.141 sec  ( 85.2%)

Fock matrix formation       ....       0.048 sec  ( 29.1%)
Diagonalization             ....       0.024 sec  ( 14.4%)
Density matrix formation    ....       0.005 sec  (  3.2%)
Population analysis         ....       0.000 sec  (  0.0%)
Initial guess               ....       0.003 sec  (  1.9%)
Orbital Transformation      ....       0.000 sec  (  0.0%)
Orbital Orthonormalization  ....       0.000 sec  (  0.0%)
DIIS solution               ....       0.054 sec  ( 32.8%)
SOSCF solution              ....       0.006 sec  (  3.9%)

-------------------------   --------------------
FINAL SINGLE POINT ENERGY       -18.512047399824
-------------------------   --------------------


                            ***************************************
                            *     ORCA property calculations      *
                            ***************************************

                                    ---------------------
                                    Active property flags
                                    ---------------------
   (+) Dipole Moment


------------------------------------------------------------------------------
                       ORCA ELECTRIC PROPERTIES CALCULATION
------------------------------------------------------------------------------

Dipole Moment Calculation                       ... on
Quadrupole Moment Calculation                   ... off
Polarizability Calculation                      ... off
GBWName                                         ... /Users/mattyjones/GoogleDrive/Boise/Code/MorphCT/tests/output_EZ/donor_polymer/chromophores/input_orca/pair/00000-00019.gbw
Electron density file                           ... /Users/mattyjones/GoogleDrive/Boise/Code/MorphCT/tests/output_EZ/donor_polymer/chromophores/input_orca/pair/00000-00019.scfp.tmp

-------------
DIPOLE MOMENT
-------------
                                X             Y             Z
Electronic contribution:    160.85535     132.05732      51.07796
Nuclear contribution   :    -84.81783     -68.32793     -28.89778
                        -----------------------------------------
Total Dipole Moment    :     76.03752      63.72939      22.18017
                        -----------------------------------------
Magnitude (a.u.)       :    101.66169
Magnitude (Debye)      :    258.40349


Timings for individual modules:

Sum of individual times         ...        0.259 sec (=   0.004 min)
STO integral calculation        ...        0.048 sec (=   0.001 min)  18.5 %
SCF iterations                  ...        0.211 sec (=   0.004 min)  81.5 %
                             ****ORCA TERMINATED NORMALLY****
TOTAL RUN TIME: 0 days 0 hours 0 minutes 0 seconds 576 msec

