
                                 *****************
                                 * O   R   C   A *
                                 *****************

           --- An Ab Initio, DFT and Semiempirical electronic structure package ---

                  #######################################################
                  #                        -***-                        #
                  #  Department of molecular theory and spectroscopy    #
                  #              Directorship: Frank Neese              #
                  # Max Planck Institute for Chemical Energy Conversion #
                  #                  D-45470 Muelheim/Ruhr              #
                  #                       Germany                       #
                  #                                                     #
                  #                  All rights reserved                #
                  #                        -***-                        #
                  #######################################################


                         Program Version 3.0.3 - RELEASE   -


 With contributions from (in alphabetic order):
   Ute Becker             : Parallelization
   Dmytro Bykov           : SCF Hessian
   Dmitry Ganyushin       : Spin-Orbit,Spin-Spin,Magnetic field MRCI
   Andreas Hansen         : Spin unrestricted coupled pair/coupled cluster methods
   Dimitrios Liakos       : Extrapolation schemes; parallel MDCI
   Robert Izsak           : Overlap fitted RIJCOSX, COSX-SCS-MP3
   Christian Kollmar      : KDIIS, OOCD, Brueckner-CCSD(T), CCSD density
   Simone Kossmann        : Meta GGA functionals, TD-DFT gradient, OOMP2, MP2 Hessian
   Taras Petrenko         : DFT Hessian,TD-DFT gradient, ASA and ECA modules, normal mode analysis, Resonance Raman, ABS, FL, XAS/XES, NRVS
   Christoph Reimann      : Effective Core Potentials
   Michael Roemelt        : Restricted open shell CIS
   Christoph Riplinger    : Improved optimizer, TS searches, QM/MM, DLPNO-CCSD
   Barbara Sandhoefer     : DKH picture change effects
   Igor Schapiro          : Molecular dynamics
   Kantharuban Sivalingam : CASSCF convergence, NEVPT2
   Boris Wezisla          : Elementary symmetry handling
   Frank Wennmohs         : Technical directorship


 We gratefully acknowledge several colleagues who have allowed us to
 interface, adapt or use parts of their codes:
   Stefan Grimme, W. Hujo, H. Kruse, T. Risthaus : VdW corrections, initial TS optimization,
                                                   DFT functionals, gCP
   Ed Valeev                                     : LibInt (2-el integral package), F12 methods
   Garnet Chan, S. Sharma, R. Olivares           : DMRG
   Ulf Ekstrom                                   : XCFun DFT Library
   Mihaly Kallay                                 : mrcc  (arbitrary order and MRCC methods)
   Andreas Klamt, Michael Diedenhofen            : otool_cosmo (COSMO solvation model)
   Frank Weinhold                                : gennbo (NPA and NBO analysis)
   Christopher J. Cramer and Donald G. Truhlar   : smd solvation model


 Your calculation uses the libint2 library for the computation of 2-el integrals
 For citations please refer to: http://libint.valeyev.net

 This ORCA versions uses:
   CBLAS   interface :  Fast vector & matrix operations
   LAPACKE interface :  Fast linear algebra routines
   SCALAPACK package :  Parallel linear algebra routines


leaving
================================================================================
                                        WARNINGS
                       Please study these warnings very carefully!
================================================================================
Now building the actual basis set

WARNING: Direct SCF is incompatible with Method<>HF and Method<>DFT
  ===> : conventional SCF is chosen

WARNING: The NDO methods need Guess=HUECKEL or Guess=HCORE or Guess=MOREAD
  ===> : Guess is set to Hueckel

WARNING: The NDO methods need %rel::SOCType==1
  ===> : %rel::SOCType is set to 1

WARNING: The NDO methods cannot have frozencore=1
  ===> : %method FrozenCore=0 end


INFO   : the flag for use of LIBINT has been found!

================================================================================
                                       INPUT FILE
================================================================================
NAME = /Users/mattyjones/GoogleDrive/Boise/Code/MorphCT/tests/output_EZ/donor_polymer/chromophores/input_orca/pair/00000-00026.inp
|  1> # ================================================================
|  2> # Orca input file made by Matty Jones
|  3> # ================================================================
|  4> ! ZINDO/S 
|  5> ! NOPOP
|  6> ! NOMOPRINT
|  7> * xyz 0   1
|  8>  C  17.24058  2.47489  28.70935
|  9>  C  17.57479  1.31130  28.01491
| 10>  C  18.85627  0.77612  28.35497
| 11>  C  19.53739  1.52087  29.32283
| 12>  S  18.53237  2.78456  29.70157
| 13>  H  16.96633  1.04633  27.08746
| 14>  C  19.23870  -0.56913  27.55018
| 15>  C  18.57872  -0.47894  25.94743
| 16>  C  16.97470  -1.12262  26.01519
| 17>  H  17.20743  -2.26613  25.90390
| 18>  H  16.62340  -0.98562  27.11320
| 19>  H  18.55635  0.60138  25.57411
| 20>  H  19.21177  -1.13166  25.25050
| 21>  H  18.81616  -1.50811  28.07533
| 22>  H  20.38877  -0.67280  27.44454
| 23>  C  15.63730  -0.90947  25.07926
| 24>  C  15.35496  0.26480  23.88608
| 25>  C  14.39465  1.57581  24.34516
| 26>  H  13.34688  1.46449  23.86359
| 27>  H  14.88344  2.55729  23.97538
| 28>  H  14.28885  1.60354  25.49612
| 29>  H  14.82782  -0.25706  23.00292
| 30>  H  16.37488  0.67177  23.54159
| 31>  H  15.45805  -1.92071  24.53229
| 32>  H  14.75321  -0.76497  25.82550
| 33>  C  -18.92195  -3.76062  -29.10312
| 34>  C  -18.34051  -3.09880  -28.02060
| 35>  C  -19.18272  -2.11282  -27.41829
| 36>  C  -20.43551  -1.99548  -28.02827
| 37>  S  -20.43522  -3.10227  -29.26336
| 38>  H  -17.28293  -3.30956  -27.64392
| 39>  C  -18.76594  -1.17882  -26.16238
| 40>  C  -17.45135  -0.13247  -26.39645
| 41>  C  -17.03621  0.91309  -25.12524
| 42>  H  -18.01514  1.39081  -24.73527
| 43>  H  -16.56671  0.28873  -24.27709
| 44>  H  -16.52713  -0.77421  -26.63794
| 45>  H  -17.71677  0.52630  -27.30523
| 46>  H  -19.65772  -0.55623  -25.75980
| 47>  H  -18.43430  -1.88148  -25.28599
| 48>  C  -16.01945  2.09500  -25.61004
| 49>  C  -14.35605  1.80951  -25.55646
| 50>  C  -13.90654  0.35448  -24.85030
| 51>  H  -12.76279  0.21410  -24.96330
| 52>  H  -14.45604  -0.51899  -25.37140
| 53>  H  -14.18273  0.37674  -23.72634
| 54>  H  -13.96385  1.81106  -26.64212
| 55>  H  -13.85814  2.66890  -24.97099
| 56>  H  -16.27292  2.37732  -26.70537
| 57>  H  -16.21095  3.02902  -24.94913
| 58>  H  16.34892  3.04124  28.62106
| 59>  H  20.49548  1.31982  29.72933
| 60>  H  -18.48767  -4.52332  -29.69750
| 61>  H  -21.22092  -1.33699  -27.75787
| 62> *
| 63> 
| 64>                          ****END OF INPUT****
================================================================================

                       ****************************
                       * Single Point Calculation *
                       ****************************

---------------------------------
CARTESIAN COORDINATES (ANGSTROEM)
---------------------------------
  C     17.240580    2.474890   28.709350
  C     17.574790    1.311300   28.014910
  C     18.856270    0.776120   28.354970
  C     19.537390    1.520870   29.322830
  S     18.532370    2.784560   29.701570
  H     16.966330    1.046330   27.087460
  C     19.238700   -0.569130   27.550180
  C     18.578720   -0.478940   25.947430
  C     16.974700   -1.122620   26.015190
  H     17.207430   -2.266130   25.903900
  H     16.623400   -0.985620   27.113200
  H     18.556350    0.601380   25.574110
  H     19.211770   -1.131660   25.250500
  H     18.816160   -1.508110   28.075330
  H     20.388770   -0.672800   27.444540
  C     15.637300   -0.909470   25.079260
  C     15.354960    0.264800   23.886080
  C     14.394650    1.575810   24.345160
  H     13.346880    1.464490   23.863590
  H     14.883440    2.557290   23.975380
  H     14.288850    1.603540   25.496120
  H     14.827820   -0.257060   23.002920
  H     16.374880    0.671770   23.541590
  H     15.458050   -1.920710   24.532290
  H     14.753210   -0.764970   25.825500
  C    -18.921950   -3.760620  -29.103120
  C    -18.340510   -3.098800  -28.020600
  C    -19.182720   -2.112820  -27.418290
  C    -20.435510   -1.995480  -28.028270
  S    -20.435220   -3.102270  -29.263360
  H    -17.282930   -3.309560  -27.643920
  C    -18.765940   -1.178820  -26.162380
  C    -17.451350   -0.132470  -26.396450
  C    -17.036210    0.913090  -25.125240
  H    -18.015140    1.390810  -24.735270
  H    -16.566710    0.288730  -24.277090
  H    -16.527130   -0.774210  -26.637940
  H    -17.716770    0.526300  -27.305230
  H    -19.657720   -0.556230  -25.759800
  H    -18.434300   -1.881480  -25.285990
  C    -16.019450    2.095000  -25.610040
  C    -14.356050    1.809510  -25.556460
  C    -13.906540    0.354480  -24.850300
  H    -12.762790    0.214100  -24.963300
  H    -14.456040   -0.518990  -25.371400
  H    -14.182730    0.376740  -23.726340
  H    -13.963850    1.811060  -26.642120
  H    -13.858140    2.668900  -24.970990
  H    -16.272920    2.377320  -26.705370
  H    -16.210950    3.029020  -24.949130
  H     16.348920    3.041240   28.621060
  H     20.495480    1.319820   29.729330
  H    -18.487670   -4.523320  -29.697500
  H    -21.220920   -1.336990  -27.757870

----------------------------
CARTESIAN COORDINATES (A.U.)
----------------------------
  NO LB      ZA    FRAG    MASS        X           Y           Z
   0 C     4.0000    0    12.011         32.579974589960052          4.676864311580366         54.252808982892084
   1 C     4.0000    0    12.011         33.211539961177877          2.477997879410937         52.940507566451814
   2 C     4.0000    0    12.011         35.633186207275280          1.466654247058962         53.583127835553078
   3 C     4.0000    0    12.011         36.920316471611720          2.874027785296814         55.412118171530096
   4 S     6.0000    0    32.060         35.021103912498184          5.262055803471760         56.127833047491428
   5 H     1.0000    0     1.008         32.061717197732150          1.977277145705823         51.187881063546548
   6 C     4.0000    0    12.011         36.355874172670788         -1.075499834598602         52.062295140234589
   7 C     4.0000    0    12.011         35.108692718805436         -0.905065434580244         49.033536579092306
   8 C     4.0000    0    12.011         32.077534205473064         -2.121444352462675         49.161584421926811
   9 H     1.0000    0     1.008         32.517330168620560         -4.282365083862966         48.951276800482709
  10 H     1.0000    0     1.008         31.413673414626537         -1.862551872115464         51.236522614233678
  11 H     1.0000    0     1.008         35.066419545189618          1.136443502417562         48.328064018776821
  12 H     1.0000    0     1.008         36.304983847884287         -2.138527476713324         47.716529744578565
  13 H     1.0000    0     1.008         35.557389292043702         -2.849914879827979         53.054684819463340
  14 H     1.0000    0     1.008         38.529191507509601         -1.271407742902218         51.862664471447147
  15 C     4.0000    0    12.011         29.550214473966790         -1.718649227017361         47.392933041405890
  16 C     4.0000    0    12.011         29.016669197315462          0.500399480262347         45.138149612933731
  17 C     4.0000    0    12.011         27.201946293649545          2.977849339094448         46.005685086494296
  18 H     1.0000    0     1.008         25.221947942310877          2.767485025866334         45.095649672181843
  19 H     1.0000    0     1.008         28.125625530648914          4.832577745015477         45.306902156692900
  20 H     1.0000    0     1.008         27.002013268680678          3.030251444788084         48.180684277592306
  21 H     1.0000    0     1.008         28.020518963080214         -0.485772999985797         43.469219080499840
  22 H     1.0000    0     1.008         30.944038675824427          1.269461324984279         44.487157857059195
  23 H     1.0000    0     1.008         29.211481064461406         -3.629615882683887         46.359309537934983
  24 H     1.0000    0     1.008         27.879526496228348         -1.445583800665740         48.803122271583291
  25 C     4.0000    0    12.011        -35.757303419751224         -7.106541893746937        -54.996926442646256
  26 C     4.0000    0    12.011        -34.658541056444051         -5.855883343795175        -52.951260108153825
  27 C     4.0000    0    12.011        -36.250087303693874         -3.992651170271499        -51.813059160431713
  28 C     4.0000    0    12.011        -38.617517307009081         -3.770910705717179        -52.965754307600996
  29 S     6.0000    0    32.060        -38.616969286430241         -5.862440693479881        -55.299736158345794
  30 H     1.0000    0     1.008        -32.660004491731620         -6.254162023780418        -52.239438068028370
  31 C     4.0000    0    12.011        -35.462487245598176         -2.227646961189050        -49.439733211578677
  32 C     4.0000    0    12.011        -32.978272167206640         -0.250332020960548        -49.882061407745624
  33 C     4.0000    0    12.011        -32.193771259970568          1.725490035622156        -47.479822649043591
  34 H     1.0000    0     1.008        -34.043680864250092          2.628250004319016        -46.742886148598316
  35 H     1.0000    0     1.008        -31.306544840094539          0.545620626647083        -45.877051428558282
  36 H     1.0000    0     1.008        -31.231749479713937         -1.463044870143172        -50.338411371826268
  37 H     1.0000    0     1.008        -33.479843277672018          0.994562864282755        -51.599406723730581
  38 H     1.0000    0     1.008        -37.147707217306468         -1.051122367471018        -48.678967264584657
  39 H     1.0000    0     1.008        -34.835778470544533         -3.555481926450156        -47.783596125071433
  40 C     4.0000    0    12.011        -30.272373316044792          3.958976250565023        -48.395961878768617
  41 C     4.0000    0    12.011        -27.129002864880185          3.419478336591844        -48.294710352513114
  42 C     4.0000    0    12.011        -26.279552070421243          0.669870119952405        -46.960261345783280
  43 H     1.0000    0     1.008        -24.118177804748814          0.404590365272540        -47.173800398916384
  44 H     1.0000    0     1.008        -27.317956581010971         -0.980748966243790        -47.944997634169646
  45 H     1.0000    0     1.008        -26.801475531348952          0.711935423693492        -44.836284760301147
  46 H     1.0000    0     1.008        -26.387852275156270          3.422407412099422        -50.346310427066051
  47 H     1.0000    0     1.008        -26.188089325539455          5.043490078822428        -47.188332392886238
  48 H     1.0000    0     1.008        -30.751362199209812          4.492483732693670        -50.465835605036574
  49 H     1.0000    0     1.008        -30.634255870690716          5.724018254170150        -47.147022979598717
  50 H     1.0000    0     1.008         30.894981385387830          5.747110707526668         54.085965062528182
  51 H     1.0000    0     1.008         38.730844183260338          2.494098346071946         56.180291844969084
  52 H     1.0000    0     1.008        -34.936633154311906         -8.547836016088675        -56.120141862126374
  53 H     1.0000    0     1.008        -40.101727109852170         -2.526544943791374        -52.454772360988692

--------------------------------
INTERNAL COORDINATES (ANGSTROEM)
--------------------------------
 C      0   0   0   0.000000     0.000     0.000
 C      1   0   0   1.395666     0.000     0.000
 C      2   1   0   1.429773   114.101     0.000
 C      3   2   1   1.398331   113.693     0.000
 S      1   2   3   1.658046   105.480     0.000
 H      2   1   3   1.140437   118.073   195.319
 C      3   2   1   1.613579   113.945   179.989
 C      7   3   2   1.735660   109.094    34.394
 C      8   7   3   1.729681   107.284   271.668
 H      9   8   7   1.172247   100.089   275.528
 H      9   8   7   1.160951   105.888    24.826
 H      8   7   3   1.143223   110.983    32.184
 H      8   7   3   1.145647   108.786   153.989
 H      7   3   2   1.155857   111.348   274.262
 H      7   3   2   1.159555   110.796   152.325
 C      9   8   7   1.646219   133.073   156.109
 C     16   9   8   1.697735   128.626   347.434
 C     17  16   9   1.688697   116.135   259.070
 H     18  17  16   1.158501   109.069   254.119
 H     18  17  16   1.157133   109.354   134.628
 H     18  17  16   1.156145   109.956    14.170
 H     17  16   9   1.153337   107.531   138.746
 H     17  16   9   1.150884   107.913    20.565
 H     16   9   8   1.163578   106.253   111.474
 H     16   9   8   1.165920   105.557   224.841
 C     22  17  16  62.180072   156.242   161.612
 C     26  22  17   1.395682    25.472   355.014
 C     27  26  22   1.429773   114.101   220.949
 C     28  27  26   1.398330   113.694     0.000
 S     26  22  17   1.658037   123.642   305.666
 H     27  26  22   1.142271   123.641    41.457
 C     28  27  26   1.619683   124.941   180.884
 C     32  28  27   1.696403   116.622    61.836
 C     33  32  28   1.697502   117.782   177.118
 H     34  33  32   1.156978   107.446   314.088
 H     34  33  32   1.153089   108.475    71.400
 H     33  32  28   1.150795   107.900   299.225
 H     33  32  28   1.153389   106.420    56.965
 H     32  28  27   1.159724   112.388   187.619
 H     32  28  27   1.171228   107.885   304.440
 C     34  33  32   1.632710   112.074   194.183
 C     41  34  33   1.688572   118.793   271.444
 C     42  41  34   1.678640   115.068   354.151
 H     43  42  41   1.157860   109.181   174.295
 H     43  42  41   1.156047   109.756    54.255
 H     43  42  41   1.157611   109.141   293.878
 H     42  41  34   1.154331   107.736   114.421
 H     42  41  34   1.152927   108.392   232.540
 H     41  34  33   1.159181   108.706    33.539
 H     41  34  33   1.160115   108.111   150.334
 H      1   2   3   1.060002   127.260   179.999
 H      4   3   2   1.060000   127.206   180.000
 H     26  22  17   1.059999   106.742   142.009
 H     29  28  27   1.059997   127.206   180.000

---------------------------
INTERNAL COORDINATES (A.U.)
---------------------------
 C      0   0   0   0.000000     0.000     0.000
 C      1   0   0   2.637427     0.000     0.000
 C      2   1   0   2.701878   114.101     0.000
 C      3   2   1   2.642463   113.693     0.000
 S      1   2   3   3.133253   105.480     0.000
 H      2   1   3   2.155113   118.073   195.319
 C      3   2   1   3.049222   113.945   179.989
 C      7   3   2   3.279922   109.094    34.394
 C      8   7   3   3.268623   107.284   271.668
 H      9   8   7   2.215226   100.089   275.528
 H      9   8   7   2.193879   105.888    24.826
 H      8   7   3   2.160379   110.983    32.184
 H      8   7   3   2.164959   108.786   153.989
 H      7   3   2   2.184254   111.348   274.262
 H      7   3   2   2.191242   110.796   152.325
 C      9   8   7   3.110903   133.073   156.109
 C     16   9   8   3.208254   128.626   347.434
 C     17  16   9   3.191175   116.135   259.070
 H     18  17  16   2.189249   109.069   254.119
 H     18  17  16   2.186664   109.354   134.628
 H     18  17  16   2.184798   109.956    14.170
 H     17  16   9   2.179491   107.531   138.746
 H     17  16   9   2.174856   107.913    20.565
 H     16   9   8   2.198843   106.253   111.474
 H     16   9   8   2.203270   105.557   224.841
 C     22  17  16 117.503306   156.242   161.612
 C     26  22  17   2.637456    25.472   355.014
 C     27  26  22   2.701880   114.101   220.949
 C     28  27  26   2.642461   113.694     0.000
 S     26  22  17   3.133236   123.642   305.666
 H     27  26  22   2.158579   123.641    41.457
 C     28  27  26   3.060756   124.941   180.884
 C     32  28  27   3.205738   116.622    61.836
 C     33  32  28   3.207813   117.782   177.118
 H     34  33  32   2.186371   107.446   314.088
 H     34  33  32   2.179022   108.475    71.400
 H     33  32  28   2.174688   107.900   299.225
 H     33  32  28   2.179590   106.420    56.965
 H     32  28  27   2.191561   112.388   187.619
 H     32  28  27   2.213301   107.885   304.440
 C     34  33  32   3.085375   112.074   194.183
 C     41  34  33   3.190938   118.793   271.444
 C     42  41  34   3.172171   115.068   354.151
 H     43  42  41   2.188038   109.181   174.295
 H     43  42  41   2.184613   109.756    54.255
 H     43  42  41   2.187567   109.141   293.878
 H     42  41  34   2.181370   107.736   114.421
 H     42  41  34   2.178716   108.392   232.540
 H     41  34  33   2.190534   108.706    33.539
 H     41  34  33   2.192300   108.111   150.334
 H      1   2   3   2.003114   127.260   179.999
 H      4   3   2   2.003110   127.206   180.000
 H     26  22  17   2.003108   106.742   142.009
 H     29  28  27   2.003104   127.206   180.000

----------------------------
SLATER BASIS SET DIM= 120
----------------------------
  0 C     2 shells
 l=0 nsto= 1
    2       1.625000000000        1.000000000000
 l=1 nsto= 1
    2       1.625000000000        1.000000000000
  1 C     2 shells
 l=0 nsto= 1
    2       1.625000000000        1.000000000000
 l=1 nsto= 1
    2       1.625000000000        1.000000000000
  2 C     2 shells
 l=0 nsto= 1
    2       1.625000000000        1.000000000000
 l=1 nsto= 1
    2       1.625000000000        1.000000000000
  3 C     2 shells
 l=0 nsto= 1
    2       1.625000000000        1.000000000000
 l=1 nsto= 1
    2       1.625000000000        1.000000000000
  4 S     2 shells
 l=0 nsto= 1
    3       1.925000000000        1.000000000000
 l=1 nsto= 1
    3       1.925000000000        1.000000000000
  5 H     1 shells
 l=0 nsto= 1
    1       1.200000000000        1.000000000000
  6 C     2 shells
 l=0 nsto= 1
    2       1.625000000000        1.000000000000
 l=1 nsto= 1
    2       1.625000000000        1.000000000000
  7 C     2 shells
 l=0 nsto= 1
    2       1.625000000000        1.000000000000
 l=1 nsto= 1
    2       1.625000000000        1.000000000000
  8 C     2 shells
 l=0 nsto= 1
    2       1.625000000000        1.000000000000
 l=1 nsto= 1
    2       1.625000000000        1.000000000000
  9 H     1 shells
 l=0 nsto= 1
    1       1.200000000000        1.000000000000
 10 H     1 shells
 l=0 nsto= 1
    1       1.200000000000        1.000000000000
 11 H     1 shells
 l=0 nsto= 1
    1       1.200000000000        1.000000000000
 12 H     1 shells
 l=0 nsto= 1
    1       1.200000000000        1.000000000000
 13 H     1 shells
 l=0 nsto= 1
    1       1.200000000000        1.000000000000
 14 H     1 shells
 l=0 nsto= 1
    1       1.200000000000        1.000000000000
 15 C     2 shells
 l=0 nsto= 1
    2       1.625000000000        1.000000000000
 l=1 nsto= 1
    2       1.625000000000        1.000000000000
 16 C     2 shells
 l=0 nsto= 1
    2       1.625000000000        1.000000000000
 l=1 nsto= 1
    2       1.625000000000        1.000000000000
 17 C     2 shells
 l=0 nsto= 1
    2       1.625000000000        1.000000000000
 l=1 nsto= 1
    2       1.625000000000        1.000000000000
 18 H     1 shells
 l=0 nsto= 1
    1       1.200000000000        1.000000000000
 19 H     1 shells
 l=0 nsto= 1
    1       1.200000000000        1.000000000000
 20 H     1 shells
 l=0 nsto= 1
    1       1.200000000000        1.000000000000
 21 H     1 shells
 l=0 nsto= 1
    1       1.200000000000        1.000000000000
 22 H     1 shells
 l=0 nsto= 1
    1       1.200000000000        1.000000000000
 23 H     1 shells
 l=0 nsto= 1
    1       1.200000000000        1.000000000000
 24 H     1 shells
 l=0 nsto= 1
    1       1.200000000000        1.000000000000
 25 C     2 shells
 l=0 nsto= 1
    2       1.625000000000        1.000000000000
 l=1 nsto= 1
    2       1.625000000000        1.000000000000
 26 C     2 shells
 l=0 nsto= 1
    2       1.625000000000        1.000000000000
 l=1 nsto= 1
    2       1.625000000000        1.000000000000
 27 C     2 shells
 l=0 nsto= 1
    2       1.625000000000        1.000000000000
 l=1 nsto= 1
    2       1.625000000000        1.000000000000
 28 C     2 shells
 l=0 nsto= 1
    2       1.625000000000        1.000000000000
 l=1 nsto= 1
    2       1.625000000000        1.000000000000
 29 S     2 shells
 l=0 nsto= 1
    3       1.925000000000        1.000000000000
 l=1 nsto= 1
    3       1.925000000000        1.000000000000
 30 H     1 shells
 l=0 nsto= 1
    1       1.200000000000        1.000000000000
 31 C     2 shells
 l=0 nsto= 1
    2       1.625000000000        1.000000000000
 l=1 nsto= 1
    2       1.625000000000        1.000000000000
 32 C     2 shells
 l=0 nsto= 1
    2       1.625000000000        1.000000000000
 l=1 nsto= 1
    2       1.625000000000        1.000000000000
 33 C     2 shells
 l=0 nsto= 1
    2       1.625000000000        1.000000000000
 l=1 nsto= 1
    2       1.625000000000        1.000000000000
 34 H     1 shells
 l=0 nsto= 1
    1       1.200000000000        1.000000000000
 35 H     1 shells
 l=0 nsto= 1
    1       1.200000000000        1.000000000000
 36 H     1 shells
 l=0 nsto= 1
    1       1.200000000000        1.000000000000
 37 H     1 shells
 l=0 nsto= 1
    1       1.200000000000        1.000000000000
 38 H     1 shells
 l=0 nsto= 1
    1       1.200000000000        1.000000000000
 39 H     1 shells
 l=0 nsto= 1
    1       1.200000000000        1.000000000000
 40 C     2 shells
 l=0 nsto= 1
    2       1.625000000000        1.000000000000
 l=1 nsto= 1
    2       1.625000000000        1.000000000000
 41 C     2 shells
 l=0 nsto= 1
    2       1.625000000000        1.000000000000
 l=1 nsto= 1
    2       1.625000000000        1.000000000000
 42 C     2 shells
 l=0 nsto= 1
    2       1.625000000000        1.000000000000
 l=1 nsto= 1
    2       1.625000000000        1.000000000000
 43 H     1 shells
 l=0 nsto= 1
    1       1.200000000000        1.000000000000
 44 H     1 shells
 l=0 nsto= 1
    1       1.200000000000        1.000000000000
 45 H     1 shells
 l=0 nsto= 1
    1       1.200000000000        1.000000000000
 46 H     1 shells
 l=0 nsto= 1
    1       1.200000000000        1.000000000000
 47 H     1 shells
 l=0 nsto= 1
    1       1.200000000000        1.000000000000
 48 H     1 shells
 l=0 nsto= 1
    1       1.200000000000        1.000000000000
 49 H     1 shells
 l=0 nsto= 1
    1       1.200000000000        1.000000000000
 50 H     1 shells
 l=0 nsto= 1
    1       1.200000000000        1.000000000000
 51 H     1 shells
 l=0 nsto= 1
    1       1.200000000000        1.000000000000
 52 H     1 shells
 l=0 nsto= 1
    1       1.200000000000        1.000000000000
 53 H     1 shells
 l=0 nsto= 1
    1       1.200000000000        1.000000000000
------------------------------------------------------------------------------
                           ORCA NDO INTEGRAL CALCULATION
------------------------------------------------------------------------------

--------------
NDO PARAMETERS
--------------

Gamma integral treatment              ... Mataga-Nishimoto
Nuclear repulsuion treatment          ... Direct (ZA*ZB/RAB)
Interaction factors:
s-s (sigma) =    1.0000
s-p (sigma) =    1.0000
s-d (sigma) =    1.0000
p-p (sigma) =    1.2670  p-p(pi) =    0.5850
p-d (sigma) =    1.0000  p-d(pi) =    1.0000
d-d (sigma) =    1.0000  d-d(pi) =    1.0000 d-d (delta) =    1.0000

fGamma parameter for Mataga-Nishimoto gamma integrals:    1.2000

--------------------------
Parameters for Element H :
--------------------------
 One-electron parameters (in eV)
  U(s)  =   -13.060000 Beta(s) =    12.000000 Neff(s) =     1.000000
 One-center electron repulsion parameters (in eV)
  G(s,s)=    12.850000
--------------------------
Parameters for Element C :
--------------------------
 One-electron parameters (in eV)
  U(s)  =   -50.870766 Beta(s) =    17.000000 Neff(s) =     2.000000
  U(p)  =   -41.599980 Beta(p) =    17.000000 Neff(p) =     2.000000 
 One-center electron repulsion parameters (in eV)
  G(s,s)=    11.110000
  G(s,p)=    11.110000 G(p,p)  =    11.110000
 Slater-Condon parameters (in eV)
 F2(p,p)=     4.5098 G1(s,p)=    6.8977
--------------------------
Parameters for Element S :
--------------------------
 One-electron parameters (in eV)
  U(s)  =   -69.509597 Beta(s) =    15.000000 Neff(s) =     2.000000
  U(p)  =   -60.725746 Beta(p) =    15.000000 Neff(p) =     4.000000 
 One-center electron repulsion parameters (in eV)
  G(s,s)=    10.090000
  G(s,p)=    10.090000 G(p,p)  =    10.090000
 Slater-Condon parameters (in eV)
 F2(p,p)=     4.5377 G1(s,p)=    3.0756

 Number of atoms                    ....   54
 Number of basis functions          ....  120

 Overlap integrals                  .... done
 One electron matrix                .... done
 Nuclear repulsion                  .... done
 Integral list                      .... done
 Electron-electron repulsion        .... done
-------------------------------------------------------------------------------
                                 ORCA SCF
-------------------------------------------------------------------------------

------------
SCF SETTINGS
------------
Hamiltonian:
 ZDO-Hamiltonian        Method          .... INDO


General Settings:
 Integral files         IntName         .... /Users/mattyjones/GoogleDrive/Boise/Code/MorphCT/tests/output_EZ/donor_polymer/chromophores/input_orca/pair/00000-00026
 Hartree-Fock type      HFTyp           .... RHF
 Total Charge           Charge          ....    0
 Multiplicity           Mult            ....    1
 Number of Electrons    NEL             ....  124
 Basis Dimension        Dim             ....  120
 Nuclear Repulsion      ENuc            ....    632.0339410386 Eh

Convergence Acceleration:
 DIIS                   CNVDIIS         .... on
   Start iteration      DIISMaxIt       ....    12
   Startup error        DIISStart       ....  0.200000
   # of expansion vecs  DIISMaxEq       ....     5
   Bias factor          DIISBfac        ....   1.050
   Max. coefficient     DIISMaxC        ....  10.000
 Newton-Raphson         CNVNR           .... off
 SOSCF                  CNVSOSCF        .... on
   Start iteration      SOSCFMaxIt      ....   150
   Startup grad/error   SOSCFStart      ....  0.003300
 Level Shifting         CNVShift        .... on
   Level shift para.    LevelShift      ....    0.2500
   Turn off err/grad.   ShiftErr        ....    0.0010
 Zerner damping         CNVZerner       .... off
 Static damping         CNVDamp         .... on
   Fraction old density DampFac         ....    0.7000
   Max. Damping (<1)    DampMax         ....    0.9800
   Min. Damping (>=0)   DampMin         ....    0.0000
   Turn off err/grad.   DampErr         ....    0.1000
 Fernandez-Rico         CNVRico         .... off

SCF Procedure:
 Maximum # iterations   MaxIter         ....   125
 SCF integral mode      SCFMode         .... Conventional
 Integral Buffer length BufferLength    .... 1048576
 Integral index format  IndFormat       ....     0
 Integral value format  ValFormat       ....     0
 Integral Storage       Thresh          ....  1.000e-08 Eh

Convergence Tolerance:
 Convergence Check Mode ConvCheckMode   .... Total+1el-Energy
 Energy Change          TolE            ....  1.000e-06 Eh
 1-El. energy change                    ....  1.000e-03 Eh
 Orbital Gradient       TolG            ....  5.000e-05
 Orbital Rotation angle TolX            ....  5.000e-05
 DIIS Error             TolErr          ....  1.000e-06


Diagonalization of the overlap matrix:
Smallest eigenvalue                        ... 1.695e-01
Time for diagonalization                   ...    0.004 sec
Threshold for overlap eigenvalues          ... 1.000e-08
Number of eigenvalues below threshold      ... 0
Time for construction of square roots      ...    0.001 sec
Total time needed                          ...    0.005 sec

-------------------------------
INITIAL GUESS: EXTENDED HUECKEL
-------------------------------
EHT matrix was read from disk
EHT matrix was diagonalized
Initial density was built
                      ------------------
                      INITIAL GUESS DONE
                      ------------------

 InCore treatment chosen:
   Memory dedicated               ...    1024 MB
   Memory needed                  ...      0 MB
   Number of tiny    integrals    ...       0
   Number of small   integrals    ...       0
   Number of regular integrals    ...    7392

--------------
SCF ITERATIONS
--------------
ITER       Energy         Delta-E        Max-DP      RMS-DP      [F,P]     Damp
  0    -16.0259164204   0.000000000000 0.03979035  0.00143974  0.0997756 0.7000
  1    -16.0675705559  -0.041654135520 0.03660962  0.00135609  0.0712298 0.7000
                               ***Turning on DIIS***
  2    -16.0984194539  -0.030848897994 0.09126127  0.00348109  0.0465326 0.0000
  3    -16.1781180918  -0.079698637907 0.01880016  0.00071825  0.0201884 0.0000
  4    -16.1643822739   0.013735817952 0.00947866  0.00049200  0.0062610 0.0000
  5    -16.1813662189  -0.016983945059 0.00647099  0.00033179  0.0036733 0.0000
  6    -16.1841793135  -0.002813094585 0.00452596  0.00023592  0.0019929 0.0000
                      *** Initiating the SOSCF procedure ***
                           *** Shutting down DIIS ***
                      *** Re-Reading the Fockian *** 
                      *** Removing any level shift *** 
ITER      Energy       Delta-E        Grad      Rot      Max-DP    RMS-DP
  7    -16.17982764   0.0043516722  0.003032  0.003032  0.004206  0.000223
  8    -16.17767890   0.0021487387  0.000295  0.000787  0.000485  0.000024
  9    -16.17768062  -0.0000017158  0.000147  0.000611  0.000457  0.000019
                 **** Energy Check signals convergence ****
              ***Rediagonalizing the Fockian in SOSCF/NRSCF***

               *****************************************************
               *                     SUCCESS                       *
               *           SCF CONVERGED AFTER  10 CYCLES          *
               *****************************************************


----------------
TOTAL SCF ENERGY
----------------

Total Energy       :          -16.17768127 Eh            -440.21709 eV

Components:
Nuclear Repulsion  :          632.03394104 Eh           17198.51789 eV
Electronic Energy  :         -648.21162231 Eh          -17638.73498 eV

One Electron Energy:        -1206.05156959 Eh          -32818.33166 eV
Two Electron Energy:          557.83994728 Eh           15179.59668 eV


---------------
SCF CONVERGENCE
---------------

  Last Energy change         ...   -6.5329e-07  Tolerance :   1.0000e-06
  Last MAX-Density change    ...    3.9167e-05  Tolerance :   1.0000e-05
  Last RMS-Density change    ...    2.1170e-06  Tolerance :   1.0000e-06
  Last Orbital Gradient      ...    1.3338e-05  Tolerance :   5.0000e-05
  Last Orbital Rotation      ...    5.3367e-05  Tolerance :   5.0000e-05

             **** THE GBW FILE WAS UPDATED (/Users/mattyjones/GoogleDrive/Boise/Code/MorphCT/tests/output_EZ/donor_polymer/chromophores/input_orca/pair/00000-00026.gbw) ****
             **** DENSITY FILE WAS UPDATED (/Users/mattyjones/GoogleDrive/Boise/Code/MorphCT/tests/output_EZ/donor_polymer/chromophores/input_orca/pair/00000-00026.scfp.tmp) ****
             **** ENERGY FILE WAS UPDATED (/Users/mattyjones/GoogleDrive/Boise/Code/MorphCT/tests/output_EZ/donor_polymer/chromophores/input_orca/pair/00000-00026.en.tmp) ****
----------------
ORBITAL ENERGIES
----------------

  NO   OCC          E(Eh)            E(eV) 
   0   2.0000      -1.565904       -42.6104 
   1   2.0000      -1.556198       -42.3463 
   2   2.0000      -1.409612       -38.3575 
   3   2.0000      -1.384732       -37.6805 
   4   2.0000      -1.302082       -35.4315 
   5   2.0000      -1.285375       -34.9768 
   6   2.0000      -1.176557       -32.0157 
   7   2.0000      -1.174564       -31.9615 
   8   2.0000      -1.120602       -30.4931 
   9   2.0000      -1.112303       -30.2673 
  10   2.0000      -1.045992       -28.4629 
  11   2.0000      -1.022910       -27.8348 
  12   2.0000      -0.968092       -26.3431 
  13   2.0000      -0.965368       -26.2690 
  14   2.0000      -0.926697       -25.2167 
  15   2.0000      -0.910533       -24.7769 
  16   2.0000      -0.843459       -22.9517 
  17   2.0000      -0.835527       -22.7359 
  18   2.0000      -0.828546       -22.5459 
  19   2.0000      -0.825770       -22.4704 
  20   2.0000      -0.776816       -21.1382 
  21   2.0000      -0.776287       -21.1239 
  22   2.0000      -0.746688       -20.3184 
  23   2.0000      -0.732489       -19.9320 
  24   2.0000      -0.701447       -19.0873 
  25   2.0000      -0.693616       -18.8742 
  26   2.0000      -0.684593       -18.6287 
  27   2.0000      -0.674382       -18.3509 
  28   2.0000      -0.639753       -17.4086 
  29   2.0000      -0.633236       -17.2312 
  30   2.0000      -0.613089       -16.6830 
  31   2.0000      -0.599787       -16.3210 
  32   2.0000      -0.596533       -16.2325 
  33   2.0000      -0.589849       -16.0506 
  34   2.0000      -0.577455       -15.7133 
  35   2.0000      -0.575329       -15.6555 
  36   2.0000      -0.573921       -15.6172 
  37   2.0000      -0.559342       -15.2205 
  38   2.0000      -0.550318       -14.9749 
  39   2.0000      -0.544243       -14.8096 
  40   2.0000      -0.537757       -14.6331 
  41   2.0000      -0.531666       -14.4674 
  42   2.0000      -0.528301       -14.3758 
  43   2.0000      -0.521077       -14.1792 
  44   2.0000      -0.504996       -13.7416 
  45   2.0000      -0.504317       -13.7232 
  46   2.0000      -0.497637       -13.5414 
  47   2.0000      -0.490388       -13.3441 
  48   2.0000      -0.489665       -13.3245 
  49   2.0000      -0.489423       -13.3179 
  50   2.0000      -0.479838       -13.0570 
  51   2.0000      -0.474686       -12.9169 
  52   2.0000      -0.472792       -12.8653 
  53   2.0000      -0.464279       -12.6337 
  54   2.0000      -0.463050       -12.6002 
  55   2.0000      -0.446245       -12.1429 
  56   2.0000      -0.437817       -11.9136 
  57   2.0000      -0.433531       -11.7970 
  58   2.0000      -0.356912        -9.7121 
  59   2.0000      -0.352455        -9.5908 
  60   2.0000      -0.304721        -8.2919 
  61   2.0000      -0.304188        -8.2774 
  62   0.0000       0.007895         0.2148 
  63   0.0000       0.008810         0.2397 
  64   0.0000       0.065367         1.7787 
  65   0.0000       0.068060         1.8520 
  66   0.0000       0.070997         1.9319 
  67   0.0000       0.078039         2.1235 
  68   0.0000       0.085705         2.3321 
  69   0.0000       0.090146         2.4530 
  70   0.0000       0.099966         2.7202 
  71   0.0000       0.103609         2.8194 
  72   0.0000       0.107861         2.9350 
  73   0.0000       0.108787         2.9602 
  74   0.0000       0.121900         3.3171 
  75   0.0000       0.122464         3.3324 
  76   0.0000       0.139283         3.7901 
  77   0.0000       0.141885         3.8609 
  78   0.0000       0.158419         4.3108 
  79   0.0000       0.158715         4.3188 
  80   0.0000       0.164001         4.4627 
  81   0.0000       0.164619         4.4795 
  82   0.0000       0.169911         4.6235 
  83   0.0000       0.176898         4.8136 
  84   0.0000       0.204483         5.5643 
  85   0.0000       0.205478         5.5913 
  86   0.0000       0.228629         6.2213 
  87   0.0000       0.233103         6.3431 
  88   0.0000       0.234157         6.3717 
  89   0.0000       0.235113         6.3978 
  90   0.0000       0.236313         6.4304 
  91   0.0000       0.236578         6.4376 
  92   0.0000       0.236801         6.4437 
  93   0.0000       0.238590         6.4924 
  94   0.0000       0.238791         6.4978 
  95   0.0000       0.242062         6.5869 
  96   0.0000       0.242393         6.5958 
  97   0.0000       0.243239         6.6189 
  98   0.0000       0.243315         6.6209 
  99   0.0000       0.244307         6.6479 
 100   0.0000       0.244377         6.6498 
 101   0.0000       0.255733         6.9588 
 102   0.0000       0.256019         6.9666 
 103   0.0000       0.260320         7.0837 
 104   0.0000       0.267080         7.2676 
 105   0.0000       0.267602         7.2818 
 106   0.0000       0.270075         7.3491 
 107   0.0000       0.283652         7.7186 
 108   0.0000       0.294462         8.0127 
 109   0.0000       0.304939         8.2978 
 110   0.0000       0.310385         8.4460 
 111   0.0000       0.311125         8.4661 
 112   0.0000       0.339011         9.2249 
 113   0.0000       0.339405         9.2357 
 114   0.0000       0.353680         9.6241 
 115   0.0000       0.365683         9.9507 
 116   0.0000       0.409263        11.1366 
 117   0.0000       0.420407        11.4399 
 118   0.0000       0.425008        11.5651 
 119   0.0000       0.431061        11.7298 
-------
TIMINGS
-------

Total SCF time: 0 days 0 hours 0 min 0 sec 

Total time                  ....       0.114 sec
Sum of individual times     ....       0.092 sec  ( 81.1%)

Fock matrix formation       ....       0.044 sec  ( 38.9%)
Diagonalization             ....       0.023 sec  ( 20.3%)
Density matrix formation    ....       0.005 sec  (  4.0%)
Population analysis         ....       0.000 sec  (  0.0%)
Initial guess               ....       0.003 sec  (  2.9%)
Orbital Transformation      ....       0.000 sec  (  0.0%)
Orbital Orthonormalization  ....       0.000 sec  (  0.0%)
DIIS solution               ....       0.013 sec  ( 11.1%)
SOSCF solution              ....       0.005 sec  (  4.0%)

-------------------------   --------------------
FINAL SINGLE POINT ENERGY       -16.177681271723
-------------------------   --------------------


                            ***************************************
                            *     ORCA property calculations      *
                            ***************************************

                                    ---------------------
                                    Active property flags
                                    ---------------------
   (+) Dipole Moment


------------------------------------------------------------------------------
                       ORCA ELECTRIC PROPERTIES CALCULATION
------------------------------------------------------------------------------

Dipole Moment Calculation                       ... on
Quadrupole Moment Calculation                   ... off
Polarizability Calculation                      ... off
GBWName                                         ... /Users/mattyjones/GoogleDrive/Boise/Code/MorphCT/tests/output_EZ/donor_polymer/chromophores/input_orca/pair/00000-00026.gbw
Electron density file                           ... /Users/mattyjones/GoogleDrive/Boise/Code/MorphCT/tests/output_EZ/donor_polymer/chromophores/input_orca/pair/00000-00026.scfp.tmp

-------------
DIPOLE MOMENT
-------------
                                X             Y             Z
Electronic contribution:    -42.03920     -14.48958      21.29317
Nuclear contribution   :     25.20193       8.37168      -7.23201
                        -----------------------------------------
Total Dipole Moment    :    -16.83727      -6.11790      14.06116
                        -----------------------------------------
Magnitude (a.u.)       :     22.77364
Magnitude (Debye)      :     57.88598


Timings for individual modules:

Sum of individual times         ...        0.202 sec (=   0.003 min)
STO integral calculation        ...        0.051 sec (=   0.001 min)  25.2 %
SCF iterations                  ...        0.151 sec (=   0.003 min)  74.8 %
                             ****ORCA TERMINATED NORMALLY****
TOTAL RUN TIME: 0 days 0 hours 0 minutes 0 seconds 512 msec

