
                                 *****************
                                 * O   R   C   A *
                                 *****************

           --- An Ab Initio, DFT and Semiempirical electronic structure package ---

                  #######################################################
                  #                        -***-                        #
                  #  Department of molecular theory and spectroscopy    #
                  #              Directorship: Frank Neese              #
                  # Max Planck Institute for Chemical Energy Conversion #
                  #                  D-45470 Muelheim/Ruhr              #
                  #                       Germany                       #
                  #                                                     #
                  #                  All rights reserved                #
                  #                        -***-                        #
                  #######################################################


                         Program Version 3.0.3 - RELEASE   -


 With contributions from (in alphabetic order):
   Ute Becker             : Parallelization
   Dmytro Bykov           : SCF Hessian
   Dmitry Ganyushin       : Spin-Orbit,Spin-Spin,Magnetic field MRCI
   Andreas Hansen         : Spin unrestricted coupled pair/coupled cluster methods
   Dimitrios Liakos       : Extrapolation schemes; parallel MDCI
   Robert Izsak           : Overlap fitted RIJCOSX, COSX-SCS-MP3
   Christian Kollmar      : KDIIS, OOCD, Brueckner-CCSD(T), CCSD density
   Simone Kossmann        : Meta GGA functionals, TD-DFT gradient, OOMP2, MP2 Hessian
   Taras Petrenko         : DFT Hessian,TD-DFT gradient, ASA and ECA modules, normal mode analysis, Resonance Raman, ABS, FL, XAS/XES, NRVS
   Christoph Reimann      : Effective Core Potentials
   Michael Roemelt        : Restricted open shell CIS
   Christoph Riplinger    : Improved optimizer, TS searches, QM/MM, DLPNO-CCSD
   Barbara Sandhoefer     : DKH picture change effects
   Igor Schapiro          : Molecular dynamics
   Kantharuban Sivalingam : CASSCF convergence, NEVPT2
   Boris Wezisla          : Elementary symmetry handling
   Frank Wennmohs         : Technical directorship


 We gratefully acknowledge several colleagues who have allowed us to
 interface, adapt or use parts of their codes:
   Stefan Grimme, W. Hujo, H. Kruse, T. Risthaus : VdW corrections, initial TS optimization,
                                                   DFT functionals, gCP
   Ed Valeev                                     : LibInt (2-el integral package), F12 methods
   Garnet Chan, S. Sharma, R. Olivares           : DMRG
   Ulf Ekstrom                                   : XCFun DFT Library
   Mihaly Kallay                                 : mrcc  (arbitrary order and MRCC methods)
   Andreas Klamt, Michael Diedenhofen            : otool_cosmo (COSMO solvation model)
   Frank Weinhold                                : gennbo (NPA and NBO analysis)
   Christopher J. Cramer and Donald G. Truhlar   : smd solvation model


 Your calculation uses the libint2 library for the computation of 2-el integrals
 For citations please refer to: http://libint.valeyev.net

 This ORCA versions uses:
   CBLAS   interface :  Fast vector & matrix operations
   LAPACKE interface :  Fast linear algebra routines
   SCALAPACK package :  Parallel linear algebra routines


leaving
================================================================================
                                        WARNINGS
                       Please study these warnings very carefully!
================================================================================
Now building the actual basis set

WARNING: Direct SCF is incompatible with Method<>HF and Method<>DFT
  ===> : conventional SCF is chosen

WARNING: The NDO methods need Guess=HUECKEL or Guess=HCORE or Guess=MOREAD
  ===> : Guess is set to Hueckel

WARNING: The NDO methods need %rel::SOCType==1
  ===> : %rel::SOCType is set to 1

WARNING: The NDO methods cannot have frozencore=1
  ===> : %method FrozenCore=0 end


INFO   : the flag for use of LIBINT has been found!

================================================================================
                                       INPUT FILE
================================================================================
NAME = /Users/mattyjones/GoogleDrive/Boise/Code/MorphCT/tests/output_EZ/donor_polymer/chromophores/input_orca/pair/00005-00025.inp
|  1> # ================================================================
|  2> # Orca input file made by Matty Jones
|  3> # ================================================================
|  4> ! ZINDO/S 
|  5> ! NOPOP
|  6> ! NOMOPRINT
|  7> * xyz 0   1
|  8>  C  21.90413  -2.39382  -9.03238
|  9>  C  23.12670  -1.74026  -8.87085
| 10>  C  24.00610  -2.36964  -7.93554
| 11>  C  23.47526  -3.52600  -7.35560
| 12>  S  21.96700  -3.70634  -8.02121
| 13>  H  23.31325  -0.58250  -8.76577
| 14>  C  25.48216  -1.85144  -7.52679
| 15>  C  25.68757  -0.26035  -6.96647
| 16>  C  27.30019  0.20293  -6.65596
| 17>  H  27.29749  1.35617  -6.82553
| 18>  H  27.91465  -0.26326  -7.51544
| 19>  H  25.25974  0.45508  -7.75738
| 20>  H  25.10133  -0.15873  -5.98156
| 21>  H  25.91755  -2.53320  -6.68471
| 22>  H  26.18390  -1.95265  -8.45608
| 23>  C  28.06239  -0.03981  -5.23260
| 24>  C  29.71612  0.37089  -5.26382
| 25>  C  30.12954  1.96147  -4.90051
| 26>  H  31.28389  2.05199  -4.86326
| 27>  H  29.68414  2.25458  -3.87473
| 28>  H  29.71485  2.66032  -5.72404
| 29>  H  30.25479  -0.31619  -4.51082
| 30>  H  30.12142  0.17228  -6.32341
| 31>  H  27.98771  -1.15394  -4.93772
| 32>  H  27.56444  0.59893  -4.40932
| 33>  C  -22.71285  2.79982  5.03586
| 34>  C  -23.63497  2.13277  5.84373
| 35>  C  -24.38508  2.99212  6.70578
| 36>  C  -24.05359  4.34457  6.57796
| 37>  S  -22.86656  4.40508  5.42136
| 38>  H  -23.57386  1.01212  6.03973
| 39>  C  -25.50943  2.40472  7.71969
| 40>  C  -26.67274  1.38258  6.97641
| 41>  C  -27.99975  0.47324  7.57013
| 42>  H  -28.30605  0.96135  8.57238
| 43>  H  -28.86122  0.61117  6.81093
| 44>  H  -26.03884  0.60263  6.46026
| 45>  H  -27.15865  2.07503  6.18087
| 46>  H  -26.10280  3.27103  8.21673
| 47>  H  -24.99832  1.78382  8.55662
| 48>  C  -27.77435  -1.12730  7.81777
| 49>  C  -27.87405  -2.11003  6.43064
| 50>  C  -29.36924  -2.69169  5.91710
| 51>  H  -29.20437  -3.63128  5.25975
| 52>  H  -29.89868  -1.87457  5.29091
| 53>  H  -30.01850  -2.96654  6.83264
| 54>  H  -27.20938  -3.03257  6.63302
| 55>  H  -27.44047  -1.50588  5.55828
| 56>  H  -28.57904  -1.51283  8.55382
| 57>  H  -26.73081  -1.30054  8.28228
| 58>  H  21.10411  -2.11078  -9.66756
| 59>  H  23.93964  -4.15553  -6.64030
| 60>  H  -22.05332  2.37067  4.32562
| 61>  H  -24.47316  5.16031  7.10911
| 62> *
| 63> 
| 64>                          ****END OF INPUT****
================================================================================

                       ****************************
                       * Single Point Calculation *
                       ****************************

---------------------------------
CARTESIAN COORDINATES (ANGSTROEM)
---------------------------------
  C     21.904130   -2.393820   -9.032380
  C     23.126700   -1.740260   -8.870850
  C     24.006100   -2.369640   -7.935540
  C     23.475260   -3.526000   -7.355600
  S     21.967000   -3.706340   -8.021210
  H     23.313250   -0.582500   -8.765770
  C     25.482160   -1.851440   -7.526790
  C     25.687570   -0.260350   -6.966470
  C     27.300190    0.202930   -6.655960
  H     27.297490    1.356170   -6.825530
  H     27.914650   -0.263260   -7.515440
  H     25.259740    0.455080   -7.757380
  H     25.101330   -0.158730   -5.981560
  H     25.917550   -2.533200   -6.684710
  H     26.183900   -1.952650   -8.456080
  C     28.062390   -0.039810   -5.232600
  C     29.716120    0.370890   -5.263820
  C     30.129540    1.961470   -4.900510
  H     31.283890    2.051990   -4.863260
  H     29.684140    2.254580   -3.874730
  H     29.714850    2.660320   -5.724040
  H     30.254790   -0.316190   -4.510820
  H     30.121420    0.172280   -6.323410
  H     27.987710   -1.153940   -4.937720
  H     27.564440    0.598930   -4.409320
  C    -22.712850    2.799820    5.035860
  C    -23.634970    2.132770    5.843730
  C    -24.385080    2.992120    6.705780
  C    -24.053590    4.344570    6.577960
  S    -22.866560    4.405080    5.421360
  H    -23.573860    1.012120    6.039730
  C    -25.509430    2.404720    7.719690
  C    -26.672740    1.382580    6.976410
  C    -27.999750    0.473240    7.570130
  H    -28.306050    0.961350    8.572380
  H    -28.861220    0.611170    6.810930
  H    -26.038840    0.602630    6.460260
  H    -27.158650    2.075030    6.180870
  H    -26.102800    3.271030    8.216730
  H    -24.998320    1.783820    8.556620
  C    -27.774350   -1.127300    7.817770
  C    -27.874050   -2.110030    6.430640
  C    -29.369240   -2.691690    5.917100
  H    -29.204370   -3.631280    5.259750
  H    -29.898680   -1.874570    5.290910
  H    -30.018500   -2.966540    6.832640
  H    -27.209380   -3.032570    6.633020
  H    -27.440470   -1.505880    5.558280
  H    -28.579040   -1.512830    8.553820
  H    -26.730810   -1.300540    8.282280
  H     21.104110   -2.110780   -9.667560
  H     23.939640   -4.155530   -6.640300
  H    -22.053320    2.370670    4.325620
  H    -24.473160    5.160310    7.109110

----------------------------
CARTESIAN COORDINATES (A.U.)
----------------------------
  NO LB      ZA    FRAG    MASS        X           Y           Z
   0 C     4.0000    0    12.011         41.392806901808505         -4.523664213903371        -17.068724537507634
   1 C     4.0000    0    12.011         43.703129381356611         -3.288614801817797        -16.763477075095338
   2 C     4.0000    0    12.011         45.364954543526963         -4.477970635985154        -14.995997324777449
   3 C     4.0000    0    12.011         44.361812322596201         -6.663174348206333        -13.900069550671159
   4 S     6.0000    0    32.060         41.511613983848136         -7.003967559197692        -15.157890162670483
   5 H     1.0000    0     1.008         44.055657791639618         -1.100765473009129        -16.564904652942889
   6 C     4.0000    0    12.011         48.154303700762760         -3.498714553387162        -14.223571767537138
   7 C     4.0000    0    12.011         48.542472345931529         -0.491990198966398        -13.164720420178382
   8 C     4.0000    0    12.011         51.589882504015620          0.383482124356640        -12.577941558334494
   9 H     1.0000    0     1.008         51.584780243454027          2.562789891039984        -12.898382418863520
  10 H     1.0000    0     1.008         52.751043624264874         -0.497489302016109        -14.202123375917131
  11 H     1.0000    0     1.008         47.733990814056000          0.859976569024883        -14.659323716758040
  12 H     1.0000    0     1.008         47.434639297181533         -0.299956229237320        -11.303510253618002
  13 H     1.0000    0     1.008         48.977071562210732         -4.787054242449314        -12.632271184684731
  14 H     1.0000    0     1.008         49.480400117980665         -3.689973735401332        -15.979675366528818
  15 C     4.0000    0    12.011         53.030231763290395         -0.075229997391405         -9.888180968356341
  16 C     4.0000    0    12.011         56.155328562739982          0.700880525810053         -9.947178218257363
  17 C     4.0000    0    12.011         56.936579141025703          3.706641119902518         -9.260621816542432
  18 H     1.0000    0     1.008         59.117984503717707          3.877699129545069         -9.190229518053867
  19 H     1.0000    0     1.008         56.094895120977185          4.260538747016176         -7.322178542888691
  20 H     1.0000    0     1.008         56.152928610549900          5.027276228593384        -10.816867979610601
  21 H     1.0000    0     1.008         57.173267339299343         -0.597512506284561         -8.524214439414660
  22 H     1.0000    0     1.008         56.921234564818270          0.325562018351953        -11.949513132498982
  23 H     1.0000    0     1.008         52.889107015609156         -2.180630574977089         -9.330938525985642
  24 H     1.0000    0     1.008         52.089242634904309          1.131813673389455         -8.332407236821654
  25 C     4.0000    0    12.011        -42.921066220833303          5.290893024275399          9.516396248768674
  26 C     4.0000    0    12.011        -44.663620483444767          4.030351206643227         11.043049300579636
  27 C     4.0000    0    12.011        -46.081122953760435          5.654287359828455         12.672087714326450
  28 C     4.0000    0    12.011        -45.454697637626879          8.210047469650252         12.430542919888637
  29 S     6.0000    0    32.060        -43.211536024878335          8.324394798013827         10.244885673395316
  30 H     1.0000    0     1.008        -44.548139319400839          1.912629614664377         11.413435622828201
  31 C     4.0000    0    12.011        -48.205836532434795          4.544262228763112         14.588099938770547
  32 C     4.0000    0    12.011        -50.404173841286728          2.612697558236844         13.183504297949558
  33 C     4.0000    0    12.011        -52.911859318261563          0.894293995616893         14.305472498181285
  34 H     1.0000    0     1.008        -53.490682433081645          1.816688218845195         16.199450515903862
  35 H     1.0000    0     1.008        -54.539801690850709          1.154943921268651         12.870792417308271
  36 H     1.0000    0     1.008        -49.206276444994046          1.138805660084964         12.208122153926105
  37 H     1.0000    0     1.008        -51.322410667020407          3.921238419670614         11.680151569369846
  38 H     1.0000    0     1.008        -49.327143328519647          6.181350875840432         15.527369416374766
  39 H     1.0000    0     1.008        -47.239978608126300          3.370931272211407         16.169668432033262
  40 C     4.0000    0    12.011        -52.485915047675711         -2.130288270769427         14.773444277985543
  41 C     4.0000    0    12.011        -52.674320743227668         -3.987378834357859         12.152148465839359
  42 C     4.0000    0    12.011        -55.499820361405384         -5.086556937414493         11.181698507025438
  43 H     1.0000    0     1.008        -55.188261213705786         -6.862124715585562          9.939487032892304
  44 H     1.0000    0     1.008        -56.500316965748645         -3.542423918864761          9.998370899225289
  45 H     1.0000    0     1.008        -56.726743951115090         -5.605948165322750         12.911818371675700
  46 H     1.0000    0     1.008        -51.418276473794222         -5.730726781945570         12.534591240822341
  47 H     1.0000    0     1.008        -51.854973286082092         -2.845700790549335         10.503626975651814
  48 H     1.0000    0     1.008        -54.006558770380806         -2.858834387180087         16.164377198858279
  49 H     1.0000    0     1.008        -50.513910237883536         -2.457664426209945         15.651240964453304
  50 H     1.0000    0     1.008         39.880988200148821         -3.988796128958300        -18.269040783251736
  51 H     1.0000    0     1.008         45.239363344666558         -7.852813641293778        -12.548348447077288
  52 H     1.0000    0     1.008        -41.674735143728213          4.479917053903094          8.174237159412444
  53 H     1.0000    0     1.008        -46.247570031636222          9.751572666135175         13.434270955920910

--------------------------------
INTERNAL COORDINATES (ANGSTROEM)
--------------------------------
 C      0   0   0   0.000000     0.000     0.000
 C      1   0   0   1.395675     0.000     0.000
 C      2   1   0   1.429779   114.101     0.000
 C      3   2   1   1.398317   113.693     0.000
 S      1   2   3   1.658049   105.479     0.000
 H      2   1   3   1.177392   127.560   223.378
 C      3   2   1   1.616899   125.858   180.385
 C      7   3   2   1.699329   119.589    54.291
 C      8   7   3   1.706338   115.369   183.558
 H      9   8   7   1.165643   103.884   152.111
 H      9   8   7   1.154816   104.941    39.922
 H      8   7   3   1.149094   108.119   304.483
 H      8   7   3   1.150674   107.658    63.464
 H      7   3   2   1.167673   109.608   175.914
 H      7   3   2   1.168872   108.622   292.973
 C      9   8   7   1.632736   124.018   272.681
 C     16   9   8   1.704251   113.652   173.743
 C     17  16   9   1.683109   117.525    88.373
 H     18  17  16   1.158493   108.998   174.529
 H     18  17  16   1.156079   109.663    54.537
 H     18  17  16   1.156962   109.217   294.053
 H     17  16   9   1.152932   107.325   210.090
 H     17  16   9   1.151714   108.468   328.300
 H     16   9   8   1.154910   109.622    53.495
 H     16   9   8   1.154874   109.752   293.950
 C      5   1   2  47.001130    91.364   139.205
 C     26   5   1   1.395677   136.279   175.797
 C     27  26   5   1.429782   114.102   136.060
 C     28  27  26   1.398336   113.693     0.000
 S     26   5   1   1.658040   106.663   311.527
 H     27  26   5   1.139301   122.294   334.079
 C     28  27  26   1.623950   121.484   179.878
 C     32  28  27   1.717709   114.454   308.142
 C     33  32  28   1.714747   133.618   177.191
 H     34  33  32   1.156104   106.338    22.682
 H     34  33  32   1.156521   106.613   138.593
 H     33  32  28   1.129850   103.208    54.187
 H     33  32  28   1.161240   103.003   300.252
 H     32  28  27   1.161736   110.550   187.980
 H     32  28  27   1.160690   109.804    68.448
 C     34  33  32   1.635194   117.699   260.762
 C     41  34  33   1.702888   115.686   279.535
 C     42  41  34   1.684531   119.971   273.457
 H     43  42  41   1.158499   109.069   202.078
 H     43  42  41   1.157629   109.094    82.746
 H     43  42  41   1.155549   109.834   322.297
 H     42  41  34   1.154913   106.532   152.226
 H     42  41  34   1.146299   107.074    34.933
 H     41  34  33   1.156689   109.070   159.456
 H     41  34  33   1.155317   109.400    40.538
 H      1   2   3   1.059999   127.261   180.000
 H      4   3   2   1.060005   127.206   180.000
 H     26   5   1   1.059995    33.524    85.355
 H     29  28  27   1.059996   127.206   180.000

---------------------------
INTERNAL COORDINATES (A.U.)
---------------------------
 C      0   0   0   0.000000     0.000     0.000
 C      1   0   0   2.637444     0.000     0.000
 C      2   1   0   2.701891   114.101     0.000
 C      3   2   1   2.642436   113.693     0.000
 S      1   2   3   3.133258   105.479     0.000
 H      2   1   3   2.224948   127.560   223.378
 C      3   2   1   3.055495   125.858   180.385
 C      7   3   2   3.211266   119.589    54.291
 C      8   7   3   3.224511   115.369   183.558
 H      9   8   7   2.202746   103.884   152.111
 H      9   8   7   2.182286   104.941    39.922
 H      8   7   3   2.171473   108.119   304.483
 H      8   7   3   2.174460   107.658    63.464
 H      7   3   2   2.206582   109.608   175.914
 H      7   3   2   2.208848   108.622   292.973
 C      9   8   7   3.085423   124.018   272.681
 C     16   9   8   3.220568   113.652   173.743
 C     17  16   9   3.180615   117.525    88.373
 H     18  17  16   2.189234   108.998   174.529
 H     18  17  16   2.184673   109.663    54.537
 H     18  17  16   2.186341   109.217   294.053
 H     17  16   9   2.178727   107.325   210.090
 H     17  16   9   2.176424   108.468   328.300
 H     16   9   8   2.182463   109.622    53.495
 H     16   9   8   2.182395   109.752   293.950
 C      5   1   2  88.819263    91.364   139.205
 C     26   5   1   2.637448   136.279   175.797
 C     27  26   5   2.701897   114.102   136.060
 C     28  27  26   2.642473   113.693     0.000
 S     26   5   1   3.133242   106.663   311.527
 H     27  26   5   2.152967   122.294   334.079
 C     28  27  26   3.068822   121.484   179.878
 C     32  28  27   3.246000   114.454   308.142
 C     33  32  28   3.240403   133.618   177.191
 H     34  33  32   2.184720   106.338    22.682
 H     34  33  32   2.185507   106.613   138.593
 H     33  32  28   2.135108   103.208    54.187
 H     33  32  28   2.194426   103.003   300.252
 H     32  28  27   2.195362   110.550   187.980
 H     32  28  27   2.193387   109.804    68.448
 C     34  33  32   3.090069   117.699   260.762
 C     41  34  33   3.217992   115.686   279.535
 C     42  41  34   3.183302   119.971   273.457
 H     43  42  41   2.189246   109.069   202.078
 H     43  42  41   2.187602   109.094    82.746
 H     43  42  41   2.183672   109.834   322.297
 H     42  41  34   2.182469   106.532   152.226
 H     42  41  34   2.166191   107.074    34.933
 H     41  34  33   2.185825   109.070   159.456
 H     41  34  33   2.183233   109.400    40.538
 H      1   2   3   2.003107   127.261   180.000
 H      4   3   2   2.003119   127.206   180.000
 H     26   5   1   2.003101    33.524    85.355
 H     29  28  27   2.003102   127.206   180.000

----------------------------
SLATER BASIS SET DIM= 120
----------------------------
  0 C     2 shells
 l=0 nsto= 1
    2       1.625000000000        1.000000000000
 l=1 nsto= 1
    2       1.625000000000        1.000000000000
  1 C     2 shells
 l=0 nsto= 1
    2       1.625000000000        1.000000000000
 l=1 nsto= 1
    2       1.625000000000        1.000000000000
  2 C     2 shells
 l=0 nsto= 1
    2       1.625000000000        1.000000000000
 l=1 nsto= 1
    2       1.625000000000        1.000000000000
  3 C     2 shells
 l=0 nsto= 1
    2       1.625000000000        1.000000000000
 l=1 nsto= 1
    2       1.625000000000        1.000000000000
  4 S     2 shells
 l=0 nsto= 1
    3       1.925000000000        1.000000000000
 l=1 nsto= 1
    3       1.925000000000        1.000000000000
  5 H     1 shells
 l=0 nsto= 1
    1       1.200000000000        1.000000000000
  6 C     2 shells
 l=0 nsto= 1
    2       1.625000000000        1.000000000000
 l=1 nsto= 1
    2       1.625000000000        1.000000000000
  7 C     2 shells
 l=0 nsto= 1
    2       1.625000000000        1.000000000000
 l=1 nsto= 1
    2       1.625000000000        1.000000000000
  8 C     2 shells
 l=0 nsto= 1
    2       1.625000000000        1.000000000000
 l=1 nsto= 1
    2       1.625000000000        1.000000000000
  9 H     1 shells
 l=0 nsto= 1
    1       1.200000000000        1.000000000000
 10 H     1 shells
 l=0 nsto= 1
    1       1.200000000000        1.000000000000
 11 H     1 shells
 l=0 nsto= 1
    1       1.200000000000        1.000000000000
 12 H     1 shells
 l=0 nsto= 1
    1       1.200000000000        1.000000000000
 13 H     1 shells
 l=0 nsto= 1
    1       1.200000000000        1.000000000000
 14 H     1 shells
 l=0 nsto= 1
    1       1.200000000000        1.000000000000
 15 C     2 shells
 l=0 nsto= 1
    2       1.625000000000        1.000000000000
 l=1 nsto= 1
    2       1.625000000000        1.000000000000
 16 C     2 shells
 l=0 nsto= 1
    2       1.625000000000        1.000000000000
 l=1 nsto= 1
    2       1.625000000000        1.000000000000
 17 C     2 shells
 l=0 nsto= 1
    2       1.625000000000        1.000000000000
 l=1 nsto= 1
    2       1.625000000000        1.000000000000
 18 H     1 shells
 l=0 nsto= 1
    1       1.200000000000        1.000000000000
 19 H     1 shells
 l=0 nsto= 1
    1       1.200000000000        1.000000000000
 20 H     1 shells
 l=0 nsto= 1
    1       1.200000000000        1.000000000000
 21 H     1 shells
 l=0 nsto= 1
    1       1.200000000000        1.000000000000
 22 H     1 shells
 l=0 nsto= 1
    1       1.200000000000        1.000000000000
 23 H     1 shells
 l=0 nsto= 1
    1       1.200000000000        1.000000000000
 24 H     1 shells
 l=0 nsto= 1
    1       1.200000000000        1.000000000000
 25 C     2 shells
 l=0 nsto= 1
    2       1.625000000000        1.000000000000
 l=1 nsto= 1
    2       1.625000000000        1.000000000000
 26 C     2 shells
 l=0 nsto= 1
    2       1.625000000000        1.000000000000
 l=1 nsto= 1
    2       1.625000000000        1.000000000000
 27 C     2 shells
 l=0 nsto= 1
    2       1.625000000000        1.000000000000
 l=1 nsto= 1
    2       1.625000000000        1.000000000000
 28 C     2 shells
 l=0 nsto= 1
    2       1.625000000000        1.000000000000
 l=1 nsto= 1
    2       1.625000000000        1.000000000000
 29 S     2 shells
 l=0 nsto= 1
    3       1.925000000000        1.000000000000
 l=1 nsto= 1
    3       1.925000000000        1.000000000000
 30 H     1 shells
 l=0 nsto= 1
    1       1.200000000000        1.000000000000
 31 C     2 shells
 l=0 nsto= 1
    2       1.625000000000        1.000000000000
 l=1 nsto= 1
    2       1.625000000000        1.000000000000
 32 C     2 shells
 l=0 nsto= 1
    2       1.625000000000        1.000000000000
 l=1 nsto= 1
    2       1.625000000000        1.000000000000
 33 C     2 shells
 l=0 nsto= 1
    2       1.625000000000        1.000000000000
 l=1 nsto= 1
    2       1.625000000000        1.000000000000
 34 H     1 shells
 l=0 nsto= 1
    1       1.200000000000        1.000000000000
 35 H     1 shells
 l=0 nsto= 1
    1       1.200000000000        1.000000000000
 36 H     1 shells
 l=0 nsto= 1
    1       1.200000000000        1.000000000000
 37 H     1 shells
 l=0 nsto= 1
    1       1.200000000000        1.000000000000
 38 H     1 shells
 l=0 nsto= 1
    1       1.200000000000        1.000000000000
 39 H     1 shells
 l=0 nsto= 1
    1       1.200000000000        1.000000000000
 40 C     2 shells
 l=0 nsto= 1
    2       1.625000000000        1.000000000000
 l=1 nsto= 1
    2       1.625000000000        1.000000000000
 41 C     2 shells
 l=0 nsto= 1
    2       1.625000000000        1.000000000000
 l=1 nsto= 1
    2       1.625000000000        1.000000000000
 42 C     2 shells
 l=0 nsto= 1
    2       1.625000000000        1.000000000000
 l=1 nsto= 1
    2       1.625000000000        1.000000000000
 43 H     1 shells
 l=0 nsto= 1
    1       1.200000000000        1.000000000000
 44 H     1 shells
 l=0 nsto= 1
    1       1.200000000000        1.000000000000
 45 H     1 shells
 l=0 nsto= 1
    1       1.200000000000        1.000000000000
 46 H     1 shells
 l=0 nsto= 1
    1       1.200000000000        1.000000000000
 47 H     1 shells
 l=0 nsto= 1
    1       1.200000000000        1.000000000000
 48 H     1 shells
 l=0 nsto= 1
    1       1.200000000000        1.000000000000
 49 H     1 shells
 l=0 nsto= 1
    1       1.200000000000        1.000000000000
 50 H     1 shells
 l=0 nsto= 1
    1       1.200000000000        1.000000000000
 51 H     1 shells
 l=0 nsto= 1
    1       1.200000000000        1.000000000000
 52 H     1 shells
 l=0 nsto= 1
    1       1.200000000000        1.000000000000
 53 H     1 shells
 l=0 nsto= 1
    1       1.200000000000        1.000000000000
------------------------------------------------------------------------------
                           ORCA NDO INTEGRAL CALCULATION
------------------------------------------------------------------------------

--------------
NDO PARAMETERS
--------------

Gamma integral treatment              ... Mataga-Nishimoto
Nuclear repulsuion treatment          ... Direct (ZA*ZB/RAB)
Interaction factors:
s-s (sigma) =    1.0000
s-p (sigma) =    1.0000
s-d (sigma) =    1.0000
p-p (sigma) =    1.2670  p-p(pi) =    0.5850
p-d (sigma) =    1.0000  p-d(pi) =    1.0000
d-d (sigma) =    1.0000  d-d(pi) =    1.0000 d-d (delta) =    1.0000

fGamma parameter for Mataga-Nishimoto gamma integrals:    1.2000

--------------------------
Parameters for Element H :
--------------------------
 One-electron parameters (in eV)
  U(s)  =   -13.060000 Beta(s) =    12.000000 Neff(s) =     1.000000
 One-center electron repulsion parameters (in eV)
  G(s,s)=    12.850000
--------------------------
Parameters for Element C :
--------------------------
 One-electron parameters (in eV)
  U(s)  =   -50.870766 Beta(s) =    17.000000 Neff(s) =     2.000000
  U(p)  =   -41.599980 Beta(p) =    17.000000 Neff(p) =     2.000000 
 One-center electron repulsion parameters (in eV)
  G(s,s)=    11.110000
  G(s,p)=    11.110000 G(p,p)  =    11.110000
 Slater-Condon parameters (in eV)
 F2(p,p)=     4.5098 G1(s,p)=    6.8977
--------------------------
Parameters for Element S :
--------------------------
 One-electron parameters (in eV)
  U(s)  =   -69.509597 Beta(s) =    15.000000 Neff(s) =     2.000000
  U(p)  =   -60.725746 Beta(p) =    15.000000 Neff(p) =     4.000000 
 One-center electron repulsion parameters (in eV)
  G(s,s)=    10.090000
  G(s,p)=    10.090000 G(p,p)  =    10.090000
 Slater-Condon parameters (in eV)
 F2(p,p)=     4.5377 G1(s,p)=    3.0756

 Number of atoms                    ....   54
 Number of basis functions          ....  120

 Overlap integrals                  .... done
 One electron matrix                .... done
 Nuclear repulsion                  .... done
 Integral list                      .... done
 Electron-electron repulsion        .... done
-------------------------------------------------------------------------------
                                 ORCA SCF
-------------------------------------------------------------------------------

------------
SCF SETTINGS
------------
Hamiltonian:
 ZDO-Hamiltonian        Method          .... INDO


General Settings:
 Integral files         IntName         .... /Users/mattyjones/GoogleDrive/Boise/Code/MorphCT/tests/output_EZ/donor_polymer/chromophores/input_orca/pair/00005-00025
 Hartree-Fock type      HFTyp           .... RHF
 Total Charge           Charge          ....    0
 Multiplicity           Mult            ....    1
 Number of Electrons    NEL             ....  124
 Basis Dimension        Dim             ....  120
 Nuclear Repulsion      ENuc            ....    617.5669451062 Eh

Convergence Acceleration:
 DIIS                   CNVDIIS         .... on
   Start iteration      DIISMaxIt       ....    12
   Startup error        DIISStart       ....  0.200000
   # of expansion vecs  DIISMaxEq       ....     5
   Bias factor          DIISBfac        ....   1.050
   Max. coefficient     DIISMaxC        ....  10.000
 Newton-Raphson         CNVNR           .... off
 SOSCF                  CNVSOSCF        .... on
   Start iteration      SOSCFMaxIt      ....   150
   Startup grad/error   SOSCFStart      ....  0.003300
 Level Shifting         CNVShift        .... on
   Level shift para.    LevelShift      ....    0.2500
   Turn off err/grad.   ShiftErr        ....    0.0010
 Zerner damping         CNVZerner       .... off
 Static damping         CNVDamp         .... on
   Fraction old density DampFac         ....    0.7000
   Max. Damping (<1)    DampMax         ....    0.9800
   Min. Damping (>=0)   DampMin         ....    0.0000
   Turn off err/grad.   DampErr         ....    0.1000
 Fernandez-Rico         CNVRico         .... off

SCF Procedure:
 Maximum # iterations   MaxIter         ....   125
 SCF integral mode      SCFMode         .... Conventional
 Integral Buffer length BufferLength    .... 1048576
 Integral index format  IndFormat       ....     0
 Integral value format  ValFormat       ....     0
 Integral Storage       Thresh          ....  1.000e-08 Eh

Convergence Tolerance:
 Convergence Check Mode ConvCheckMode   .... Total+1el-Energy
 Energy Change          TolE            ....  1.000e-06 Eh
 1-El. energy change                    ....  1.000e-03 Eh
 Orbital Gradient       TolG            ....  5.000e-05
 Orbital Rotation angle TolX            ....  5.000e-05
 DIIS Error             TolErr          ....  1.000e-06


Diagonalization of the overlap matrix:
Smallest eigenvalue                        ... 1.689e-01
Time for diagonalization                   ...    0.003 sec
Threshold for overlap eigenvalues          ... 1.000e-08
Number of eigenvalues below threshold      ... 0
Time for construction of square roots      ...    0.001 sec
Total time needed                          ...    0.004 sec

-------------------------------
INITIAL GUESS: EXTENDED HUECKEL
-------------------------------
EHT matrix was read from disk
EHT matrix was diagonalized
Initial density was built
                      ------------------
                      INITIAL GUESS DONE
                      ------------------

 InCore treatment chosen:
   Memory dedicated               ...    1024 MB
   Memory needed                  ...      0 MB
   Number of tiny    integrals    ...       0
   Number of small   integrals    ...       0
   Number of regular integrals    ...    7392

--------------
SCF ITERATIONS
--------------
ITER       Energy         Delta-E        Max-DP      RMS-DP      [F,P]     Damp
  0    -22.1621738379   0.000000000000 0.04298841  0.00148266  0.1131225 0.7000
  1    -22.2056831523  -0.043509314401 0.03994614  0.00139834  0.0772074 0.7000
                               ***Turning on DIIS***
  2    -22.2378176872  -0.032134534865 0.09901344  0.00358697  0.0490040 0.0000
  3    -22.3218404098  -0.084022722644 0.01889302  0.00073938  0.0220350 0.0000
  4    -22.3052705333   0.016569876503 0.01117570  0.00051471  0.0072817 0.0000
  5    -22.3235329988  -0.018262465476 0.00731935  0.00035103  0.0040676 0.0000
  6    -22.3256041507  -0.002071151907 0.00575176  0.00025191  0.0021323 0.0000
                      *** Initiating the SOSCF procedure ***
                           *** Shutting down DIIS ***
                      *** Re-Reading the Fockian *** 
                      *** Removing any level shift *** 
ITER      Energy       Delta-E        Grad      Rot      Max-DP    RMS-DP
  7    -22.32207804   0.0035261134  0.003229  0.003229  0.003532  0.000145
  8    -22.32006458   0.0020134526  0.000938  0.002667  0.001765  0.000069
  9    -22.32008222  -0.0000176336  0.000415  0.002689  0.002160  0.000076
 10    -22.32008906  -0.0000068414  0.000041  0.000077  0.000150  0.000005
                 **** Energy Check signals convergence ****
              ***Rediagonalizing the Fockian in SOSCF/NRSCF***

               *****************************************************
               *                     SUCCESS                       *
               *           SCF CONVERGED AFTER  11 CYCLES          *
               *****************************************************


----------------
TOTAL SCF ENERGY
----------------

Total Energy       :          -22.32008913 Eh            -607.36050 eV

Components:
Nuclear Repulsion  :          617.56694511 Eh           16804.85092 eV
Electronic Energy  :         -639.88703423 Eh          -17412.21142 eV

One Electron Energy:        -1189.45269204 Eh          -32366.65324 eV
Two Electron Energy:          549.56565781 Eh           14954.44182 eV


---------------
SCF CONVERGENCE
---------------

  Last Energy change         ...   -6.8956e-08  Tolerance :   1.0000e-06
  Last MAX-Density change    ...    6.6178e-05  Tolerance :   1.0000e-05
  Last RMS-Density change    ...    1.7733e-06  Tolerance :   1.0000e-06
  Last Orbital Gradient      ...    1.6711e-05  Tolerance :   5.0000e-05
  Last Orbital Rotation      ...    3.6972e-05  Tolerance :   5.0000e-05

             **** THE GBW FILE WAS UPDATED (/Users/mattyjones/GoogleDrive/Boise/Code/MorphCT/tests/output_EZ/donor_polymer/chromophores/input_orca/pair/00005-00025.gbw) ****
             **** DENSITY FILE WAS UPDATED (/Users/mattyjones/GoogleDrive/Boise/Code/MorphCT/tests/output_EZ/donor_polymer/chromophores/input_orca/pair/00005-00025.scfp.tmp) ****
             **** ENERGY FILE WAS UPDATED (/Users/mattyjones/GoogleDrive/Boise/Code/MorphCT/tests/output_EZ/donor_polymer/chromophores/input_orca/pair/00005-00025.en.tmp) ****
----------------
ORBITAL ENERGIES
----------------

  NO   OCC          E(Eh)            E(eV) 
   0   2.0000      -1.560123       -42.4531 
   1   2.0000      -1.558010       -42.3956 
   2   2.0000      -1.391543       -37.8658 
   3   2.0000      -1.390178       -37.8287 
   4   2.0000      -1.293039       -35.1854 
   5   2.0000      -1.283205       -34.9178 
   6   2.0000      -1.186373       -32.2829 
   7   2.0000      -1.178751       -32.0755 
   8   2.0000      -1.116164       -30.3724 
   9   2.0000      -1.109782       -30.1987 
  10   2.0000      -1.041386       -28.3375 
  11   2.0000      -1.036835       -28.2137 
  12   2.0000      -0.960949       -26.1488 
  13   2.0000      -0.959956       -26.1217 
  14   2.0000      -0.919276       -25.0148 
  15   2.0000      -0.901818       -24.5397 
  16   2.0000      -0.860653       -23.4196 
  17   2.0000      -0.844582       -22.9822 
  18   2.0000      -0.825445       -22.4615 
  19   2.0000      -0.822956       -22.3938 
  20   2.0000      -0.770721       -20.9724 
  21   2.0000      -0.770073       -20.9547 
  22   2.0000      -0.734717       -19.9927 
  23   2.0000      -0.727551       -19.7977 
  24   2.0000      -0.696863       -18.9626 
  25   2.0000      -0.684047       -18.6139 
  26   2.0000      -0.681430       -18.5427 
  27   2.0000      -0.673770       -18.3342 
  28   2.0000      -0.649850       -17.6833 
  29   2.0000      -0.633863       -17.2483 
  30   2.0000      -0.623578       -16.9684 
  31   2.0000      -0.617794       -16.8110 
  32   2.0000      -0.586849       -15.9690 
  33   2.0000      -0.583244       -15.8709 
  34   2.0000      -0.578639       -15.7456 
  35   2.0000      -0.577578       -15.7167 
  36   2.0000      -0.570658       -15.5284 
  37   2.0000      -0.567545       -15.4437 
  38   2.0000      -0.563430       -15.3317 
  39   2.0000      -0.559550       -15.2261 
  40   2.0000      -0.529475       -14.4078 
  41   2.0000      -0.524564       -14.2741 
  42   2.0000      -0.521014       -14.1775 
  43   2.0000      -0.519913       -14.1475 
  44   2.0000      -0.506765       -13.7898 
  45   2.0000      -0.506208       -13.7746 
  46   2.0000      -0.495217       -13.4755 
  47   2.0000      -0.494312       -13.4509 
  48   2.0000      -0.488372       -13.2893 
  49   2.0000      -0.488272       -13.2866 
  50   2.0000      -0.483219       -13.1491 
  51   2.0000      -0.481404       -13.0997 
  52   2.0000      -0.468774       -12.7560 
  53   2.0000      -0.468410       -12.7461 
  54   2.0000      -0.454370       -12.3640 
  55   2.0000      -0.449859       -12.2413 
  56   2.0000      -0.436961       -11.8903 
  57   2.0000      -0.435225       -11.8431 
  58   2.0000      -0.356034        -9.6882 
  59   2.0000      -0.349441        -9.5088 
  60   2.0000      -0.305677        -8.3179 
  61   2.0000      -0.304475        -8.2852 
  62   0.0000       0.002371         0.0645 
  63   0.0000       0.006443         0.1753 
  64   0.0000       0.057973         1.5775 
  65   0.0000       0.061898         1.6843 
  66   0.0000       0.070159         1.9091 
  67   0.0000       0.073540         2.0011 
  68   0.0000       0.086490         2.3535 
  69   0.0000       0.089625         2.4388 
  70   0.0000       0.103431         2.8145 
  71   0.0000       0.104706         2.8492 
  72   0.0000       0.106927         2.9096 
  73   0.0000       0.109348         2.9755 
  74   0.0000       0.125295         3.4095 
  75   0.0000       0.126049         3.4300 
  76   0.0000       0.143091         3.8937 
  77   0.0000       0.144259         3.9255 
  78   0.0000       0.155203         4.2233 
  79   0.0000       0.160839         4.3767 
  80   0.0000       0.166621         4.5340 
  81   0.0000       0.170074         4.6280 
  82   0.0000       0.173003         4.7076 
  83   0.0000       0.178760         4.8643 
  84   0.0000       0.199531         5.4295 
  85   0.0000       0.204332         5.5602 
  86   0.0000       0.233323         6.3490 
  87   0.0000       0.234791         6.3890 
  88   0.0000       0.235115         6.3978 
  89   0.0000       0.235525         6.4090 
  90   0.0000       0.236309         6.4303 
  91   0.0000       0.237401         6.4600 
  92   0.0000       0.238416         6.4876 
  93   0.0000       0.240034         6.5317 
  94   0.0000       0.240066         6.5325 
  95   0.0000       0.241240         6.5645 
  96   0.0000       0.242220         6.5911 
  97   0.0000       0.242618         6.6020 
  98   0.0000       0.244245         6.6463 
  99   0.0000       0.244781         6.6608 
 100   0.0000       0.250817         6.8251 
 101   0.0000       0.251404         6.8411 
 102   0.0000       0.253220         6.8905 
 103   0.0000       0.257409         7.0044 
 104   0.0000       0.265308         7.2194 
 105   0.0000       0.266188         7.2433 
 106   0.0000       0.275260         7.4902 
 107   0.0000       0.282687         7.6923 
 108   0.0000       0.304101         8.2750 
 109   0.0000       0.309252         8.4152 
 110   0.0000       0.309434         8.4201 
 111   0.0000       0.312166         8.4945 
 112   0.0000       0.338637         9.2148 
 113   0.0000       0.339867         9.2483 
 114   0.0000       0.353719         9.6252 
 115   0.0000       0.354839         9.6557 
 116   0.0000       0.409008        11.1297 
 117   0.0000       0.412301        11.2193 
 118   0.0000       0.427581        11.6351 
 119   0.0000       0.433330        11.7915 
-------
TIMINGS
-------

Total SCF time: 0 days 0 hours 0 min 0 sec 

Total time                  ....       0.129 sec
Sum of individual times     ....       0.101 sec  ( 78.0%)

Fock matrix formation       ....       0.047 sec  ( 36.1%)
Diagonalization             ....       0.027 sec  ( 20.9%)
Density matrix formation    ....       0.005 sec  (  4.0%)
Population analysis         ....       0.000 sec  (  0.0%)
Initial guess               ....       0.003 sec  (  2.1%)
Orbital Transformation      ....       0.000 sec  (  0.0%)
Orbital Orthonormalization  ....       0.000 sec  (  0.0%)
DIIS solution               ....       0.012 sec  (  9.1%)
SOSCF solution              ....       0.007 sec  (  5.7%)

-------------------------   --------------------
FINAL SINGLE POINT ENERGY       -22.320089128601
-------------------------   --------------------


                            ***************************************
                            *     ORCA property calculations      *
                            ***************************************

                                    ---------------------
                                    Active property flags
                                    ---------------------
   (+) Dipole Moment


------------------------------------------------------------------------------
                       ORCA ELECTRIC PROPERTIES CALCULATION
------------------------------------------------------------------------------

Dipole Moment Calculation                       ... on
Quadrupole Moment Calculation                   ... off
Polarizability Calculation                      ... off
GBWName                                         ... /Users/mattyjones/GoogleDrive/Boise/Code/MorphCT/tests/output_EZ/donor_polymer/chromophores/input_orca/pair/00005-00025.gbw
Electron density file                           ... /Users/mattyjones/GoogleDrive/Boise/Code/MorphCT/tests/output_EZ/donor_polymer/chromophores/input_orca/pair/00005-00025.scfp.tmp

-------------
DIPOLE MOMENT
-------------
                                X             Y             Z
Electronic contribution:    -21.35576      19.02070     -71.36065
Nuclear contribution   :     13.12802     -10.40340      37.89840
                        -----------------------------------------
Total Dipole Moment    :     -8.22775       8.61730     -33.46225
                        -----------------------------------------
Magnitude (a.u.)       :     35.52008
Magnitude (Debye)      :     90.28487


Timings for individual modules:

Sum of individual times         ...        0.221 sec (=   0.004 min)
STO integral calculation        ...        0.045 sec (=   0.001 min)  20.4 %
SCF iterations                  ...        0.176 sec (=   0.003 min)  79.6 %
                             ****ORCA TERMINATED NORMALLY****
TOTAL RUN TIME: 0 days 0 hours 0 minutes 0 seconds 546 msec

