
                                 *****************
                                 * O   R   C   A *
                                 *****************

           --- An Ab Initio, DFT and Semiempirical electronic structure package ---

                  #######################################################
                  #                        -***-                        #
                  #  Department of molecular theory and spectroscopy    #
                  #              Directorship: Frank Neese              #
                  # Max Planck Institute for Chemical Energy Conversion #
                  #                  D-45470 Muelheim/Ruhr              #
                  #                       Germany                       #
                  #                                                     #
                  #                  All rights reserved                #
                  #                        -***-                        #
                  #######################################################


                         Program Version 3.0.3 - RELEASE   -


 With contributions from (in alphabetic order):
   Ute Becker             : Parallelization
   Dmytro Bykov           : SCF Hessian
   Dmitry Ganyushin       : Spin-Orbit,Spin-Spin,Magnetic field MRCI
   Andreas Hansen         : Spin unrestricted coupled pair/coupled cluster methods
   Dimitrios Liakos       : Extrapolation schemes; parallel MDCI
   Robert Izsak           : Overlap fitted RIJCOSX, COSX-SCS-MP3
   Christian Kollmar      : KDIIS, OOCD, Brueckner-CCSD(T), CCSD density
   Simone Kossmann        : Meta GGA functionals, TD-DFT gradient, OOMP2, MP2 Hessian
   Taras Petrenko         : DFT Hessian,TD-DFT gradient, ASA and ECA modules, normal mode analysis, Resonance Raman, ABS, FL, XAS/XES, NRVS
   Christoph Reimann      : Effective Core Potentials
   Michael Roemelt        : Restricted open shell CIS
   Christoph Riplinger    : Improved optimizer, TS searches, QM/MM, DLPNO-CCSD
   Barbara Sandhoefer     : DKH picture change effects
   Igor Schapiro          : Molecular dynamics
   Kantharuban Sivalingam : CASSCF convergence, NEVPT2
   Boris Wezisla          : Elementary symmetry handling
   Frank Wennmohs         : Technical directorship


 We gratefully acknowledge several colleagues who have allowed us to
 interface, adapt or use parts of their codes:
   Stefan Grimme, W. Hujo, H. Kruse, T. Risthaus : VdW corrections, initial TS optimization,
                                                   DFT functionals, gCP
   Ed Valeev                                     : LibInt (2-el integral package), F12 methods
   Garnet Chan, S. Sharma, R. Olivares           : DMRG
   Ulf Ekstrom                                   : XCFun DFT Library
   Mihaly Kallay                                 : mrcc  (arbitrary order and MRCC methods)
   Andreas Klamt, Michael Diedenhofen            : otool_cosmo (COSMO solvation model)
   Frank Weinhold                                : gennbo (NPA and NBO analysis)
   Christopher J. Cramer and Donald G. Truhlar   : smd solvation model


 Your calculation uses the libint2 library for the computation of 2-el integrals
 For citations please refer to: http://libint.valeyev.net

 This ORCA versions uses:
   CBLAS   interface :  Fast vector & matrix operations
   LAPACKE interface :  Fast linear algebra routines
   SCALAPACK package :  Parallel linear algebra routines


leaving
================================================================================
                                        WARNINGS
                       Please study these warnings very carefully!
================================================================================
Now building the actual basis set

WARNING: Direct SCF is incompatible with Method<>HF and Method<>DFT
  ===> : conventional SCF is chosen

WARNING: The NDO methods need Guess=HUECKEL or Guess=HCORE or Guess=MOREAD
  ===> : Guess is set to Hueckel

WARNING: The NDO methods need %rel::SOCType==1
  ===> : %rel::SOCType is set to 1

WARNING: The NDO methods cannot have frozencore=1
  ===> : %method FrozenCore=0 end


INFO   : the flag for use of LIBINT has been found!

================================================================================
                                       INPUT FILE
================================================================================
NAME = /Users/mattyjones/GoogleDrive/Boise/Code/MorphCT/tests/output_EZ/donor_polymer/chromophores/input_orca/pair/00007-00028.inp
|  1> # ================================================================
|  2> # Orca input file made by Matty Jones
|  3> # ================================================================
|  4> ! ZINDO/S 
|  5> ! NOPOP
|  6> ! NOMOPRINT
|  7> * xyz 0   1
|  8>  C  -18.12213  -13.02577  -6.54945
|  9>  C  -16.92485  -12.66090  -7.16696
| 10>  C  -15.75344  -13.10233  -6.47616
| 11>  C  -16.02711  -13.81938  -5.30729
| 12>  S  -17.68078  -13.86878  -5.19164
| 13>  H  -16.66033  -12.68249  -8.32428
| 14>  C  -14.29803  -12.72849  -7.08688
| 15>  C  -13.92719  -11.11464  -7.59194
| 16>  C  -14.28404  -10.50264  -9.15482
| 17>  H  -13.84575  -11.24982  -9.91769
| 18>  H  -15.43391  -10.48726  -9.25505
| 19>  H  -14.47845  -10.42516  -6.85126
| 20>  H  -12.78906  -10.99284  -7.45603
| 21>  H  -14.10587  -13.38460  -8.02247
| 22>  H  -13.47695  -12.98249  -6.29645
| 23>  C  -13.69799  -9.00615  -9.47053
| 24>  C  -14.27022  -8.14338  -10.82545
| 25>  C  -13.52870  -8.20292  -12.33939
| 26>  H  -12.38113  -8.24336  -12.20854
| 27>  H  -13.81627  -7.24913  -12.93279
| 28>  H  -13.89643  -9.13670  -12.91311
| 29>  H  -15.37211  -8.44450  -10.97294
| 30>  H  -14.19957  -7.04387  -10.50890
| 31>  H  -13.89802  -8.33360  -8.55036
| 32>  H  -12.55149  -9.09168  -9.61566
| 33>  C  12.52352  6.66091  7.15262
| 34>  C  13.27229  7.63487  7.81491
| 35>  C  12.48628  8.57436  8.55234
| 36>  C  11.10990  8.34107  8.47194
| 37>  S  10.94027  7.00349  7.50626
| 38>  H  14.41466  7.63781  7.84388
| 39>  C  13.16413  9.77730  9.39662
| 40>  C  14.46911  10.56537  8.68038
| 41>  C  15.24650  11.83859  9.49379
| 42>  H  15.37020  11.55532  10.60414
| 43>  H  14.60032  12.78882  9.40767
| 44>  H  15.27463  9.75954  8.49595
| 45>  H  14.10649  10.98510  7.66928
| 46>  H  12.37263  10.61489  9.58467
| 47>  H  13.53370  9.38264  10.42775
| 48>  C  16.69861  12.06010  8.78405
| 49>  C  17.63880  13.39397  9.20381
| 50>  C  17.39032  14.67639  8.14300
| 51>  H  18.13461  15.52674  8.38970
| 52>  H  16.30495  15.06044  8.25292
| 53>  H  17.56492  14.31175  7.05794
| 54>  H  17.36718  13.73031  10.26990
| 55>  H  18.74943  13.09142  9.15999
| 56>  H  16.54134  12.10688  7.63678
| 57>  H  17.34925  11.12619  9.01813
| 58>  H  -19.10611  -12.80953  -6.87901
| 59>  H  -15.32468  -14.24273  -4.63575
| 60>  H  12.88978  5.86914  6.55049
| 61>  H  10.33681  8.90176  8.93190
| 62> *
| 63> 
| 64>                          ****END OF INPUT****
================================================================================

                       ****************************
                       * Single Point Calculation *
                       ****************************

---------------------------------
CARTESIAN COORDINATES (ANGSTROEM)
---------------------------------
  C    -18.122130  -13.025770   -6.549450
  C    -16.924850  -12.660900   -7.166960
  C    -15.753440  -13.102330   -6.476160
  C    -16.027110  -13.819380   -5.307290
  S    -17.680780  -13.868780   -5.191640
  H    -16.660330  -12.682490   -8.324280
  C    -14.298030  -12.728490   -7.086880
  C    -13.927190  -11.114640   -7.591940
  C    -14.284040  -10.502640   -9.154820
  H    -13.845750  -11.249820   -9.917690
  H    -15.433910  -10.487260   -9.255050
  H    -14.478450  -10.425160   -6.851260
  H    -12.789060  -10.992840   -7.456030
  H    -14.105870  -13.384600   -8.022470
  H    -13.476950  -12.982490   -6.296450
  C    -13.697990   -9.006150   -9.470530
  C    -14.270220   -8.143380  -10.825450
  C    -13.528700   -8.202920  -12.339390
  H    -12.381130   -8.243360  -12.208540
  H    -13.816270   -7.249130  -12.932790
  H    -13.896430   -9.136700  -12.913110
  H    -15.372110   -8.444500  -10.972940
  H    -14.199570   -7.043870  -10.508900
  H    -13.898020   -8.333600   -8.550360
  H    -12.551490   -9.091680   -9.615660
  C     12.523520    6.660910    7.152620
  C     13.272290    7.634870    7.814910
  C     12.486280    8.574360    8.552340
  C     11.109900    8.341070    8.471940
  S     10.940270    7.003490    7.506260
  H     14.414660    7.637810    7.843880
  C     13.164130    9.777300    9.396620
  C     14.469110   10.565370    8.680380
  C     15.246500   11.838590    9.493790
  H     15.370200   11.555320   10.604140
  H     14.600320   12.788820    9.407670
  H     15.274630    9.759540    8.495950
  H     14.106490   10.985100    7.669280
  H     12.372630   10.614890    9.584670
  H     13.533700    9.382640   10.427750
  C     16.698610   12.060100    8.784050
  C     17.638800   13.393970    9.203810
  C     17.390320   14.676390    8.143000
  H     18.134610   15.526740    8.389700
  H     16.304950   15.060440    8.252920
  H     17.564920   14.311750    7.057940
  H     17.367180   13.730310   10.269900
  H     18.749430   13.091420    9.159990
  H     16.541340   12.106880    7.636780
  H     17.349250   11.126190    9.018130
  H    -19.106110  -12.809530   -6.879010
  H    -15.324680  -14.242730   -4.635750
  H     12.889780    5.869140    6.550490
  H     10.336810    8.901760    8.931900

----------------------------
CARTESIAN COORDINATES (A.U.)
----------------------------
  NO LB      ZA    FRAG    MASS        X           Y           Z
   0 C     4.0000    0    12.011        -34.245862663318327        -24.615137983447422        -12.376666827810542
   1 C     4.0000    0    12.011        -31.983331357697097        -23.925633608963576        -13.543591612768255
   2 C     4.0000    0    12.011        -29.769687267160403        -24.759815416260434        -12.238168799455453
   3 C     4.0000    0    12.011        -30.286848618230632        -26.114843540588669        -10.029324613298920
   4 S     6.0000    0    32.060        -33.411832034112187        -26.208196011604375         -9.810777785910926
   5 H     1.0000    0     1.008        -31.483461000752243        -23.966432796194933        -15.730609462077997
   6 C     4.0000    0    12.011        -27.019360954590073        -24.053360198355314        -13.392262343963839
   7 C     4.0000    0    12.011        -26.318574915086717        -21.003625677126500        -14.346687425162107
   8 C     4.0000    0    12.011        -26.992923685976514        -19.847113283166692        -17.300102605344954
   9 H     1.0000    0     1.008        -26.164675618740173        -21.259078855909976        -18.741717981129458
  10 H     1.0000    0     1.008        -29.165863075588543        -19.818049295226984        -17.489509855747883
  11 H     1.0000    0     1.008        -27.360305343672145        -19.700697302310477        -12.947005072289315
  12 H     1.0000    0     1.008        -24.167820910286920        -20.773457034014889        -14.089854746300871
  13 H     1.0000    0     1.008        -26.656231180695766        -25.293228412082385        -15.160271217599224
  14 H     1.0000    0     1.008        -25.467744620550015        -24.533350636371310        -11.898566115928466
  15 C     4.0000    0    12.011        -25.885449685191968        -17.019157021014880        -17.896708043085233
  16 C     4.0000    0    12.011        -26.966807670805725        -15.388758004451644        -20.457135776457815
  17 C     4.0000    0    12.011        -25.565537947980438        -15.501272298465315        -23.318067759646553
  18 H     1.0000    0     1.008        -23.396944928476429        -15.577692823321087        -23.070797095022957
  19 H     1.0000    0     1.008        -26.108966492312170        -13.698870409192564        -24.439431247515426
  20 H     1.0000    0     1.008        -26.260446939207299        -17.265860767798298        -24.402241437199855
  21 H     1.0000    0     1.008        -29.049078000512210        -15.957792337898010        -20.735851483949858
  22 H     1.0000    0     1.008        -26.833298519444188        -13.310985222943888        -19.858942968765042
  23 H     1.0000    0     1.008        -26.263451603760235        -15.748221709646144        -16.157838746434912
  24 H     1.0000    0     1.008        -23.718878672651250        -17.180785297249166        -18.170963996901222
  25 C     4.0000    0    12.011         23.666023032685473         12.587295702697405         13.516492940007822
  26 C     4.0000    0    12.011         25.080993269981690         14.427813368091346         14.768039661242529
  27 C     4.0000    0    12.011         23.595649631458247         16.203192173649025         16.161580404180075
  28 C     4.0000    0    12.011         20.994668375251713         15.762337963866536         16.009646423012811
  29 S     6.0000    0    32.060         20.674114131154653         13.234678081656147         14.184775690007735
  30 H     1.0000    0     1.008         27.239759713589308         14.433369162925075         14.822785027342228
  31 C     4.0000    0    12.011         24.876600491336767         18.476419329188253         17.757038384527114
  32 C     4.0000    0    12.011         27.342655301581324         19.965655803547573         16.403540938367353
  33 C     4.0000    0    12.011         28.811709500830361         22.371692911778791         17.940663072960241
  34 H     1.0000    0     1.008         29.045468623596424         21.836390189822918         20.038920485759700
  35 H     1.0000    0     1.008         27.590606267613129         24.167367376014781         17.777919858306941
  36 H     1.0000    0     1.008         28.864867496977567         18.442857793049811         16.055018747488258
  37 H     1.0000    0     1.008         26.657402810898798         20.758830553738338         14.492838844359577
  38 H     1.0000    0     1.008         23.380882256338094         20.059235041699356         18.112401384011001
  39 H     1.0000    0     1.008         25.574986578650044         17.730620013174892         19.705591692997331
  40 C     4.0000    0    12.011         31.555799717158749         22.790286147703689         16.599448846670970
  41 C     4.0000    0    12.011         33.332501331010171         25.310935145957227         17.392680288645757
  42 C     4.0000    0    12.011         32.862942181253416         27.734357734620517         15.388039908520753
  43 H     1.0000    0     1.008         34.269446445469669         29.341286352600456         15.854235345759124
  44 H     1.0000    0     1.008         30.811890127279316         28.460107056352975         15.595758605161375
  45 H     1.0000    0     1.008         33.192888364236076         27.045287997147472         13.337573669648160
  46 H     1.0000    0     1.008         32.819213918514485         25.946525633840299         19.407298422757862
  47 H     1.0000    0     1.008         35.431287867127132         24.739198504139353         17.309872489457327
  48 H     1.0000    0     1.008         31.258602488076960         22.878687536248524         14.431422745007136
  49 H     1.0000    0     1.008         32.785331128933279         21.025452013973290         17.041795940099256
  50 H     1.0000    0     1.008        -36.105315384574169        -24.206503604248290        -12.999444972505630
  51 H     1.0000    0     1.008        -28.959448289980330        -26.914859099384227         -8.760297925325442
  52 H     1.0000    0     1.008         24.358154126495471         11.091067241642575         12.378632142989821
  53 H     1.0000    0     1.008         19.533739998378532         16.821888509894841         16.878844855571227

--------------------------------
INTERNAL COORDINATES (ANGSTROEM)
--------------------------------
 C      0   0   0   0.000000     0.000     0.000
 C      1   0   0   1.395682     0.000     0.000
 C      2   1   0   1.429778   114.101     0.000
 C      3   2   1   1.398325   113.693     0.000
 S      1   2   3   1.658042   105.480     0.000
 H      2   1   3   1.187361   128.142   138.175
 C      3   2   1   1.622021   118.820   180.569
 C      7   3   2   1.731219   121.125    47.940
 C      8   7   3   1.715949   123.617   273.832
 H      9   8   7   1.154273   106.985   308.062
 H      9   8   7   1.154333   106.917    64.998
 H      8   7   3   1.152336   105.532    35.464
 H      8   7   3   1.152669   105.998   151.542
 H      7   3   2   1.158764   108.802   286.445
 H      7   3   2   1.167676   109.022   169.047
 C      9   8   7   1.637867   115.279   186.479
 C     16   9   8   1.705177   119.695   193.922
 C     17  16   9   1.686835   123.214   267.896
 H     18  17  16   1.155714   109.640   322.485
 H     18  17  16   1.159541   108.738   202.855
 H     18  17  16   1.155995   109.518    83.401
 H     17  16   9   1.151776   106.889    32.578
 H     17  16   9   1.146350   104.194   149.244
 H     16   9   8   1.157173   108.415   315.882
 H     16   9   8   1.158810   108.102    73.042
 C     25  16   9  34.030507   129.282   237.539
 C     26  25  16   1.395666   162.207   320.680
 C     27  26  25   1.429775   114.102    32.371
 C     28  27  26   1.398324   113.693     0.000
 S     26  25  16   1.658042    59.810   357.332
 H     27  26  25   1.142741   123.377   207.451
 C     28  27  26   1.618442   121.817   179.659
 C     32  28  27   1.684348   116.771    40.687
 C     33  32  28   1.699135   120.099   180.136
 H     34  33  32   1.152571   109.034    42.286
 H     34  33  32   1.152346   109.000   282.721
 H     33  32  28   1.154227   106.379   300.675
 H     33  32  28   1.153252   107.427    57.838
 H     32  28  27   1.167644   109.468   159.692
 H     32  28  27   1.164288   110.060   278.740
 C     34  33  32   1.631386   107.501   162.598
 C     41  34  33   1.685042   119.719   171.248
 C     42  41  34   1.682754   111.336   265.326
 H     43  42  41   1.156686   109.317   186.276
 H     43  42  41   1.156549   109.374    65.973
 H     43  42  41   1.157930   109.176   306.078
 H     42  41  34   1.150413   109.302    25.872
 H     42  41  34   1.151936   108.697   145.772
 H     41  34  33   1.158944   108.383    48.426
 H     41  34  33   1.162030   107.555   291.980
 H      1   2   3   1.059993   127.260   179.999
 H      4   3   2   1.060000   127.206   180.000
 H     26  25  16   1.060003    68.219   167.996
 H     29  28  27   1.060002   127.206   180.000

---------------------------
INTERNAL COORDINATES (A.U.)
---------------------------
 C      0   0   0   0.000000     0.000     0.000
 C      1   0   0   2.637457     0.000     0.000
 C      2   1   0   2.701890   114.101     0.000
 C      3   2   1   2.642451   113.693     0.000
 S      1   2   3   3.133246   105.480     0.000
 H      2   1   3   2.243787   128.142   138.175
 C      3   2   1   3.065176   118.820   180.569
 C      7   3   2   3.271530   121.125    47.940
 C      8   7   3   3.242673   123.617   273.832
 H      9   8   7   2.181260   106.985   308.062
 H      9   8   7   2.181372   106.917    64.998
 H      8   7   3   2.177599   105.532    35.464
 H      8   7   3   2.178229   105.998   151.542
 H      7   3   2   2.189747   108.802   286.445
 H      7   3   2   2.206588   109.022   169.047
 C      9   8   7   3.095121   115.279   186.479
 C     16   9   8   3.222317   119.695   193.922
 C     17  16   9   3.187656   123.214   267.896
 H     18  17  16   2.183982   109.640   322.485
 H     18  17  16   2.191215   108.738   202.855
 H     18  17  16   2.184514   109.518    83.401
 H     17  16   9   2.176541   106.889    32.578
 H     17  16   9   2.166287   104.194   149.244
 H     16   9   8   2.186739   108.415   315.882
 H     16   9   8   2.189833   108.102    73.042
 C     25  16   9  64.308339   129.282   237.539
 C     26  25  16   2.637426   162.207   320.680
 C     27  26  25   2.701883   114.102    32.371
 C     28  27  26   2.642450   113.693     0.000
 S     26  25  16   3.133245    59.810   357.332
 H     27  26  25   2.159468   123.377   207.451
 C     28  27  26   3.058412   121.817   179.659
 C     32  28  27   3.182956   116.771    40.687
 C     33  32  28   3.210900   120.099   180.136
 H     34  33  32   2.178044   109.034    42.286
 H     34  33  32   2.177619   109.000   282.721
 H     33  32  28   2.181172   106.379   300.675
 H     33  32  28   2.179330   107.427    57.838
 H     32  28  27   2.206527   109.468   159.692
 H     32  28  27   2.200186   110.060   278.740
 C     34  33  32   3.082873   107.501   162.598
 C     41  34  33   3.184267   119.719   171.248
 C     42  41  34   3.179944   111.336   265.326
 H     43  42  41   2.185821   109.317   186.276
 H     43  42  41   2.185560   109.374    65.973
 H     43  42  41   2.188171   109.176   306.078
 H     42  41  34   2.173965   109.302    25.872
 H     42  41  34   2.176843   108.697   145.772
 H     41  34  33   2.190086   108.383    48.426
 H     41  34  33   2.195918   107.555   291.980
 H      1   2   3   2.003097   127.260   179.999
 H      4   3   2   2.003109   127.206   180.000
 H     26  25  16   2.003116    68.219   167.996
 H     29  28  27   2.003114   127.206   180.000

----------------------------
SLATER BASIS SET DIM= 120
----------------------------
  0 C     2 shells
 l=0 nsto= 1
    2       1.625000000000        1.000000000000
 l=1 nsto= 1
    2       1.625000000000        1.000000000000
  1 C     2 shells
 l=0 nsto= 1
    2       1.625000000000        1.000000000000
 l=1 nsto= 1
    2       1.625000000000        1.000000000000
  2 C     2 shells
 l=0 nsto= 1
    2       1.625000000000        1.000000000000
 l=1 nsto= 1
    2       1.625000000000        1.000000000000
  3 C     2 shells
 l=0 nsto= 1
    2       1.625000000000        1.000000000000
 l=1 nsto= 1
    2       1.625000000000        1.000000000000
  4 S     2 shells
 l=0 nsto= 1
    3       1.925000000000        1.000000000000
 l=1 nsto= 1
    3       1.925000000000        1.000000000000
  5 H     1 shells
 l=0 nsto= 1
    1       1.200000000000        1.000000000000
  6 C     2 shells
 l=0 nsto= 1
    2       1.625000000000        1.000000000000
 l=1 nsto= 1
    2       1.625000000000        1.000000000000
  7 C     2 shells
 l=0 nsto= 1
    2       1.625000000000        1.000000000000
 l=1 nsto= 1
    2       1.625000000000        1.000000000000
  8 C     2 shells
 l=0 nsto= 1
    2       1.625000000000        1.000000000000
 l=1 nsto= 1
    2       1.625000000000        1.000000000000
  9 H     1 shells
 l=0 nsto= 1
    1       1.200000000000        1.000000000000
 10 H     1 shells
 l=0 nsto= 1
    1       1.200000000000        1.000000000000
 11 H     1 shells
 l=0 nsto= 1
    1       1.200000000000        1.000000000000
 12 H     1 shells
 l=0 nsto= 1
    1       1.200000000000        1.000000000000
 13 H     1 shells
 l=0 nsto= 1
    1       1.200000000000        1.000000000000
 14 H     1 shells
 l=0 nsto= 1
    1       1.200000000000        1.000000000000
 15 C     2 shells
 l=0 nsto= 1
    2       1.625000000000        1.000000000000
 l=1 nsto= 1
    2       1.625000000000        1.000000000000
 16 C     2 shells
 l=0 nsto= 1
    2       1.625000000000        1.000000000000
 l=1 nsto= 1
    2       1.625000000000        1.000000000000
 17 C     2 shells
 l=0 nsto= 1
    2       1.625000000000        1.000000000000
 l=1 nsto= 1
    2       1.625000000000        1.000000000000
 18 H     1 shells
 l=0 nsto= 1
    1       1.200000000000        1.000000000000
 19 H     1 shells
 l=0 nsto= 1
    1       1.200000000000        1.000000000000
 20 H     1 shells
 l=0 nsto= 1
    1       1.200000000000        1.000000000000
 21 H     1 shells
 l=0 nsto= 1
    1       1.200000000000        1.000000000000
 22 H     1 shells
 l=0 nsto= 1
    1       1.200000000000        1.000000000000
 23 H     1 shells
 l=0 nsto= 1
    1       1.200000000000        1.000000000000
 24 H     1 shells
 l=0 nsto= 1
    1       1.200000000000        1.000000000000
 25 C     2 shells
 l=0 nsto= 1
    2       1.625000000000        1.000000000000
 l=1 nsto= 1
    2       1.625000000000        1.000000000000
 26 C     2 shells
 l=0 nsto= 1
    2       1.625000000000        1.000000000000
 l=1 nsto= 1
    2       1.625000000000        1.000000000000
 27 C     2 shells
 l=0 nsto= 1
    2       1.625000000000        1.000000000000
 l=1 nsto= 1
    2       1.625000000000        1.000000000000
 28 C     2 shells
 l=0 nsto= 1
    2       1.625000000000        1.000000000000
 l=1 nsto= 1
    2       1.625000000000        1.000000000000
 29 S     2 shells
 l=0 nsto= 1
    3       1.925000000000        1.000000000000
 l=1 nsto= 1
    3       1.925000000000        1.000000000000
 30 H     1 shells
 l=0 nsto= 1
    1       1.200000000000        1.000000000000
 31 C     2 shells
 l=0 nsto= 1
    2       1.625000000000        1.000000000000
 l=1 nsto= 1
    2       1.625000000000        1.000000000000
 32 C     2 shells
 l=0 nsto= 1
    2       1.625000000000        1.000000000000
 l=1 nsto= 1
    2       1.625000000000        1.000000000000
 33 C     2 shells
 l=0 nsto= 1
    2       1.625000000000        1.000000000000
 l=1 nsto= 1
    2       1.625000000000        1.000000000000
 34 H     1 shells
 l=0 nsto= 1
    1       1.200000000000        1.000000000000
 35 H     1 shells
 l=0 nsto= 1
    1       1.200000000000        1.000000000000
 36 H     1 shells
 l=0 nsto= 1
    1       1.200000000000        1.000000000000
 37 H     1 shells
 l=0 nsto= 1
    1       1.200000000000        1.000000000000
 38 H     1 shells
 l=0 nsto= 1
    1       1.200000000000        1.000000000000
 39 H     1 shells
 l=0 nsto= 1
    1       1.200000000000        1.000000000000
 40 C     2 shells
 l=0 nsto= 1
    2       1.625000000000        1.000000000000
 l=1 nsto= 1
    2       1.625000000000        1.000000000000
 41 C     2 shells
 l=0 nsto= 1
    2       1.625000000000        1.000000000000
 l=1 nsto= 1
    2       1.625000000000        1.000000000000
 42 C     2 shells
 l=0 nsto= 1
    2       1.625000000000        1.000000000000
 l=1 nsto= 1
    2       1.625000000000        1.000000000000
 43 H     1 shells
 l=0 nsto= 1
    1       1.200000000000        1.000000000000
 44 H     1 shells
 l=0 nsto= 1
    1       1.200000000000        1.000000000000
 45 H     1 shells
 l=0 nsto= 1
    1       1.200000000000        1.000000000000
 46 H     1 shells
 l=0 nsto= 1
    1       1.200000000000        1.000000000000
 47 H     1 shells
 l=0 nsto= 1
    1       1.200000000000        1.000000000000
 48 H     1 shells
 l=0 nsto= 1
    1       1.200000000000        1.000000000000
 49 H     1 shells
 l=0 nsto= 1
    1       1.200000000000        1.000000000000
 50 H     1 shells
 l=0 nsto= 1
    1       1.200000000000        1.000000000000
 51 H     1 shells
 l=0 nsto= 1
    1       1.200000000000        1.000000000000
 52 H     1 shells
 l=0 nsto= 1
    1       1.200000000000        1.000000000000
 53 H     1 shells
 l=0 nsto= 1
    1       1.200000000000        1.000000000000
------------------------------------------------------------------------------
                           ORCA NDO INTEGRAL CALCULATION
------------------------------------------------------------------------------

--------------
NDO PARAMETERS
--------------

Gamma integral treatment              ... Mataga-Nishimoto
Nuclear repulsuion treatment          ... Direct (ZA*ZB/RAB)
Interaction factors:
s-s (sigma) =    1.0000
s-p (sigma) =    1.0000
s-d (sigma) =    1.0000
p-p (sigma) =    1.2670  p-p(pi) =    0.5850
p-d (sigma) =    1.0000  p-d(pi) =    1.0000
d-d (sigma) =    1.0000  d-d(pi) =    1.0000 d-d (delta) =    1.0000

fGamma parameter for Mataga-Nishimoto gamma integrals:    1.2000

--------------------------
Parameters for Element H :
--------------------------
 One-electron parameters (in eV)
  U(s)  =   -13.060000 Beta(s) =    12.000000 Neff(s) =     1.000000
 One-center electron repulsion parameters (in eV)
  G(s,s)=    12.850000
--------------------------
Parameters for Element C :
--------------------------
 One-electron parameters (in eV)
  U(s)  =   -50.870766 Beta(s) =    17.000000 Neff(s) =     2.000000
  U(p)  =   -41.599980 Beta(p) =    17.000000 Neff(p) =     2.000000 
 One-center electron repulsion parameters (in eV)
  G(s,s)=    11.110000
  G(s,p)=    11.110000 G(p,p)  =    11.110000
 Slater-Condon parameters (in eV)
 F2(p,p)=     4.5098 G1(s,p)=    6.8977
--------------------------
Parameters for Element S :
--------------------------
 One-electron parameters (in eV)
  U(s)  =   -69.509597 Beta(s) =    15.000000 Neff(s) =     2.000000
  U(p)  =   -60.725746 Beta(p) =    15.000000 Neff(p) =     4.000000 
 One-center electron repulsion parameters (in eV)
  G(s,s)=    10.090000
  G(s,p)=    10.090000 G(p,p)  =    10.090000
 Slater-Condon parameters (in eV)
 F2(p,p)=     4.5377 G1(s,p)=    3.0756

 Number of atoms                    ....   54
 Number of basis functions          ....  120

 Overlap integrals                  .... done
 One electron matrix                .... done
 Nuclear repulsion                  .... done
 Integral list                      .... done
 Electron-electron repulsion        .... done
-------------------------------------------------------------------------------
                                 ORCA SCF
-------------------------------------------------------------------------------

------------
SCF SETTINGS
------------
Hamiltonian:
 ZDO-Hamiltonian        Method          .... INDO


General Settings:
 Integral files         IntName         .... /Users/mattyjones/GoogleDrive/Boise/Code/MorphCT/tests/output_EZ/donor_polymer/chromophores/input_orca/pair/00007-00028
 Hartree-Fock type      HFTyp           .... RHF
 Total Charge           Charge          ....    0
 Multiplicity           Mult            ....    1
 Number of Electrons    NEL             ....  124
 Basis Dimension        Dim             ....  120
 Nuclear Repulsion      ENuc            ....    630.0584560930 Eh

Convergence Acceleration:
 DIIS                   CNVDIIS         .... on
   Start iteration      DIISMaxIt       ....    12
   Startup error        DIISStart       ....  0.200000
   # of expansion vecs  DIISMaxEq       ....     5
   Bias factor          DIISBfac        ....   1.050
   Max. coefficient     DIISMaxC        ....  10.000
 Newton-Raphson         CNVNR           .... off
 SOSCF                  CNVSOSCF        .... on
   Start iteration      SOSCFMaxIt      ....   150
   Startup grad/error   SOSCFStart      ....  0.003300
 Level Shifting         CNVShift        .... on
   Level shift para.    LevelShift      ....    0.2500
   Turn off err/grad.   ShiftErr        ....    0.0010
 Zerner damping         CNVZerner       .... off
 Static damping         CNVDamp         .... on
   Fraction old density DampFac         ....    0.7000
   Max. Damping (<1)    DampMax         ....    0.9800
   Min. Damping (>=0)   DampMin         ....    0.0000
   Turn off err/grad.   DampErr         ....    0.1000
 Fernandez-Rico         CNVRico         .... off

SCF Procedure:
 Maximum # iterations   MaxIter         ....   125
 SCF integral mode      SCFMode         .... Conventional
 Integral Buffer length BufferLength    .... 1048576
 Integral index format  IndFormat       ....     0
 Integral value format  ValFormat       ....     0
 Integral Storage       Thresh          ....  1.000e-08 Eh

Convergence Tolerance:
 Convergence Check Mode ConvCheckMode   .... Total+1el-Energy
 Energy Change          TolE            ....  1.000e-06 Eh
 1-El. energy change                    ....  1.000e-03 Eh
 Orbital Gradient       TolG            ....  5.000e-05
 Orbital Rotation angle TolX            ....  5.000e-05
 DIIS Error             TolErr          ....  1.000e-06


Diagonalization of the overlap matrix:
Smallest eigenvalue                        ... 1.690e-01
Time for diagonalization                   ...    0.003 sec
Threshold for overlap eigenvalues          ... 1.000e-08
Number of eigenvalues below threshold      ... 0
Time for construction of square roots      ...    0.001 sec
Total time needed                          ...    0.004 sec

-------------------------------
INITIAL GUESS: EXTENDED HUECKEL
-------------------------------
EHT matrix was read from disk
EHT matrix was diagonalized
Initial density was built
                      ------------------
                      INITIAL GUESS DONE
                      ------------------

 InCore treatment chosen:
   Memory dedicated               ...    1024 MB
   Memory needed                  ...      0 MB
   Number of tiny    integrals    ...       0
   Number of small   integrals    ...       0
   Number of regular integrals    ...    7392

--------------
SCF ITERATIONS
--------------
ITER       Energy         Delta-E        Max-DP      RMS-DP      [F,P]     Damp
  0    -23.7754245648   0.000000000000 0.04500386  0.00147659  0.1225639 0.7000
  1    -23.8185756769  -0.043151112041 0.04337011  0.00139388  0.0838511 0.7000
                               ***Turning on DIIS***
  2    -23.8504790145  -0.031903337628 0.11230337  0.00358136  0.0508651 0.0000
  3    -23.9330507332  -0.082571718724 0.02247295  0.00074566  0.0227040 0.0000
  4    -23.9174456249   0.015605108283 0.01271024  0.00051793  0.0086671 0.0000
  5    -23.9360062148  -0.018560589877 0.00940636  0.00035260  0.0050160 0.0000
  6    -23.9382416512  -0.002235436362 0.00746279  0.00025132  0.0027493 0.0000
                      *** Initiating the SOSCF procedure ***
                           *** Shutting down DIIS ***
                      *** Re-Reading the Fockian *** 
                      *** Removing any level shift *** 
ITER      Energy       Delta-E        Grad      Rot      Max-DP    RMS-DP
  7    -23.93446439   0.0037772584  0.003213  0.003213  0.004592  0.000143
  8    -23.93225003   0.0022143672  0.000935  0.002654  0.002365  0.000068
  9    -23.93226701  -0.0000169815  0.000409  0.002638  0.002822  0.000075
 10    -23.93227351  -0.0000065068  0.000042  0.000076  0.000136  0.000005
                 **** Energy Check signals convergence ****
              ***Rediagonalizing the Fockian in SOSCF/NRSCF***

               *****************************************************
               *                     SUCCESS                       *
               *           SCF CONVERGED AFTER  11 CYCLES          *
               *****************************************************


----------------
TOTAL SCF ENERGY
----------------

Total Energy       :          -23.93227358 Eh            -651.23027 eV

Components:
Nuclear Repulsion  :          630.05845609 Eh           17144.76221 eV
Electronic Energy  :         -653.99072968 Eh          -17795.99249 eV

One Electron Energy:        -1217.64021459 Eh          -33133.67472 eV
Two Electron Energy:          563.64948491 Eh           15337.68224 eV


---------------
SCF CONVERGENCE
---------------

  Last Energy change         ...   -6.9063e-08  Tolerance :   1.0000e-06
  Last MAX-Density change    ...    8.2212e-05  Tolerance :   1.0000e-05
  Last RMS-Density change    ...    1.8568e-06  Tolerance :   1.0000e-06
  Last Orbital Gradient      ...    1.9870e-05  Tolerance :   5.0000e-05
  Last Orbital Rotation      ...    4.0191e-05  Tolerance :   5.0000e-05

             **** THE GBW FILE WAS UPDATED (/Users/mattyjones/GoogleDrive/Boise/Code/MorphCT/tests/output_EZ/donor_polymer/chromophores/input_orca/pair/00007-00028.gbw) ****
             **** DENSITY FILE WAS UPDATED (/Users/mattyjones/GoogleDrive/Boise/Code/MorphCT/tests/output_EZ/donor_polymer/chromophores/input_orca/pair/00007-00028.scfp.tmp) ****
             **** ENERGY FILE WAS UPDATED (/Users/mattyjones/GoogleDrive/Boise/Code/MorphCT/tests/output_EZ/donor_polymer/chromophores/input_orca/pair/00007-00028.en.tmp) ****
----------------
ORBITAL ENERGIES
----------------

  NO   OCC          E(Eh)            E(eV) 
   0   2.0000      -1.558831       -42.4179 
   1   2.0000      -1.557084       -42.3704 
   2   2.0000      -1.405127       -38.2354 
   3   2.0000      -1.381462       -37.5915 
   4   2.0000      -1.297166       -35.2977 
   5   2.0000      -1.284867       -34.9630 
   6   2.0000      -1.186801       -32.2945 
   7   2.0000      -1.186142       -32.2766 
   8   2.0000      -1.113934       -30.3117 
   9   2.0000      -1.108029       -30.1510 
  10   2.0000      -1.039489       -28.2859 
  11   2.0000      -1.023709       -27.8565 
  12   2.0000      -0.971990       -26.4492 
  13   2.0000      -0.952996       -25.9323 
  14   2.0000      -0.897726       -24.4284 
  15   2.0000      -0.891939       -24.2709 
  16   2.0000      -0.868773       -23.6405 
  17   2.0000      -0.858527       -23.3617 
  18   2.0000      -0.833255       -22.6740 
  19   2.0000      -0.819452       -22.2984 
  20   2.0000      -0.770922       -20.9778 
  21   2.0000      -0.770223       -20.9588 
  22   2.0000      -0.735736       -20.0204 
  23   2.0000      -0.726315       -19.7640 
  24   2.0000      -0.715312       -19.4646 
  25   2.0000      -0.686598       -18.6833 
  26   2.0000      -0.668998       -18.2044 
  27   2.0000      -0.664940       -18.0939 
  28   2.0000      -0.648233       -17.6393 
  29   2.0000      -0.639366       -17.3980 
  30   2.0000      -0.638005       -17.3610 
  31   2.0000      -0.609925       -16.5969 
  32   2.0000      -0.584987       -15.9183 
  33   2.0000      -0.583745       -15.8845 
  34   2.0000      -0.579270       -15.7627 
  35   2.0000      -0.575088       -15.6489 
  36   2.0000      -0.567443       -15.4409 
  37   2.0000      -0.566521       -15.4158 
  38   2.0000      -0.559739       -15.2313 
  39   2.0000      -0.552837       -15.0434 
  40   2.0000      -0.537464       -14.6251 
  41   2.0000      -0.528980       -14.3943 
  42   2.0000      -0.525905       -14.3106 
  43   2.0000      -0.517871       -14.0920 
  44   2.0000      -0.512361       -13.9421 
  45   2.0000      -0.497463       -13.5367 
  46   2.0000      -0.495144       -13.4735 
  47   2.0000      -0.491338       -13.3700 
  48   2.0000      -0.488860       -13.3026 
  49   2.0000      -0.482075       -13.1179 
  50   2.0000      -0.477654       -12.9976 
  51   2.0000      -0.475354       -12.9350 
  52   2.0000      -0.472471       -12.8566 
  53   2.0000      -0.466989       -12.7074 
  54   2.0000      -0.464875       -12.6499 
  55   2.0000      -0.460959       -12.5433 
  56   2.0000      -0.438471       -11.9314 
  57   2.0000      -0.438426       -11.9302 
  58   2.0000      -0.356973        -9.7137 
  59   2.0000      -0.349539        -9.5115 
  60   2.0000      -0.305221        -8.3055 
  61   2.0000      -0.304785        -8.2936 
  62   0.0000       0.002837         0.0772 
  63   0.0000       0.007898         0.2149 
  64   0.0000       0.058535         1.5928 
  65   0.0000       0.065311         1.7772 
  66   0.0000       0.070213         1.9106 
  67   0.0000       0.075057         2.0424 
  68   0.0000       0.087250         2.3742 
  69   0.0000       0.091299         2.4844 
  70   0.0000       0.104964         2.8562 
  71   0.0000       0.105512         2.8711 
  72   0.0000       0.108273         2.9463 
  73   0.0000       0.108961         2.9650 
  74   0.0000       0.124257         3.3812 
  75   0.0000       0.127057         3.4574 
  76   0.0000       0.141039         3.8379 
  77   0.0000       0.142255         3.8709 
  78   0.0000       0.154454         4.2029 
  79   0.0000       0.158128         4.3029 
  80   0.0000       0.165729         4.5097 
  81   0.0000       0.170917         4.6509 
  82   0.0000       0.171299         4.6613 
  83   0.0000       0.176309         4.7976 
  84   0.0000       0.199212         5.4208 
  85   0.0000       0.204585         5.5671 
  86   0.0000       0.233819         6.3625 
  87   0.0000       0.235028         6.3954 
  88   0.0000       0.235606         6.4112 
  89   0.0000       0.236292         6.4298 
  90   0.0000       0.239073         6.5055 
  91   0.0000       0.239236         6.5099 
  92   0.0000       0.240118         6.5339 
  93   0.0000       0.240753         6.5512 
  94   0.0000       0.241243         6.5645 
  95   0.0000       0.242504         6.5989 
  96   0.0000       0.242644         6.6027 
  97   0.0000       0.242813         6.6073 
  98   0.0000       0.244349         6.6491 
  99   0.0000       0.244696         6.6585 
 100   0.0000       0.244784         6.6609 
 101   0.0000       0.249543         6.7904 
 102   0.0000       0.255330         6.9479 
 103   0.0000       0.260334         7.0840 
 104   0.0000       0.265476         7.2240 
 105   0.0000       0.266981         7.2649 
 106   0.0000       0.277727         7.5573 
 107   0.0000       0.287130         7.8132 
 108   0.0000       0.299223         8.1423 
 109   0.0000       0.301975         8.2171 
 110   0.0000       0.308839         8.4039 
 111   0.0000       0.310327         8.4444 
 112   0.0000       0.335611         9.1325 
 113   0.0000       0.339537         9.2393 
 114   0.0000       0.354201         9.6383 
 115   0.0000       0.354773         9.6539 
 116   0.0000       0.413830        11.2609 
 117   0.0000       0.415492        11.3061 
 118   0.0000       0.428439        11.6584 
 119   0.0000       0.429114        11.6768 
-------
TIMINGS
-------

Total SCF time: 0 days 0 hours 0 min 0 sec 

Total time                  ....       0.125 sec
Sum of individual times     ....       0.102 sec  ( 81.7%)

Fock matrix formation       ....       0.049 sec  ( 39.0%)
Diagonalization             ....       0.024 sec  ( 19.1%)
Density matrix formation    ....       0.006 sec  (  5.1%)
Population analysis         ....       0.000 sec  (  0.0%)
Initial guess               ....       0.003 sec  (  2.5%)
Orbital Transformation      ....       0.000 sec  (  0.0%)
Orbital Orthonormalization  ....       0.000 sec  (  0.0%)
DIIS solution               ....       0.013 sec  ( 10.7%)
SOSCF solution              ....       0.007 sec  (  5.2%)

-------------------------   --------------------
FINAL SINGLE POINT ENERGY       -23.932273582989
-------------------------   --------------------


                            ***************************************
                            *     ORCA property calculations      *
                            ***************************************

                                    ---------------------
                                    Active property flags
                                    ---------------------
   (+) Dipole Moment


------------------------------------------------------------------------------
                       ORCA ELECTRIC PROPERTIES CALCULATION
------------------------------------------------------------------------------

Dipole Moment Calculation                       ... on
Quadrupole Moment Calculation                   ... off
Polarizability Calculation                      ... off
GBWName                                         ... /Users/mattyjones/GoogleDrive/Boise/Code/MorphCT/tests/output_EZ/donor_polymer/chromophores/input_orca/pair/00007-00028.gbw
Electron density file                           ... /Users/mattyjones/GoogleDrive/Boise/Code/MorphCT/tests/output_EZ/donor_polymer/chromophores/input_orca/pair/00007-00028.scfp.tmp

-------------
DIPOLE MOMENT
-------------
                                X             Y             Z
Electronic contribution:   -185.36349    -192.39040      61.83709
Nuclear contribution   :     95.62799     101.02717     -35.58040
                        -----------------------------------------
Total Dipole Moment    :    -89.73549     -91.36323      26.25669
                        -----------------------------------------
Magnitude (a.u.)       :    130.72533
Magnitude (Debye)      :    332.27738


Timings for individual modules:

Sum of individual times         ...        0.224 sec (=   0.004 min)
STO integral calculation        ...        0.050 sec (=   0.001 min)  22.3 %
SCF iterations                  ...        0.174 sec (=   0.003 min)  77.7 %
                             ****ORCA TERMINATED NORMALLY****
TOTAL RUN TIME: 0 days 0 hours 0 minutes 0 seconds 532 msec

