
                                 *****************
                                 * O   R   C   A *
                                 *****************

           --- An Ab Initio, DFT and Semiempirical electronic structure package ---

                  #######################################################
                  #                        -***-                        #
                  #  Department of molecular theory and spectroscopy    #
                  #              Directorship: Frank Neese              #
                  # Max Planck Institute for Chemical Energy Conversion #
                  #                  D-45470 Muelheim/Ruhr              #
                  #                       Germany                       #
                  #                                                     #
                  #                  All rights reserved                #
                  #                        -***-                        #
                  #######################################################


                         Program Version 3.0.3 - RELEASE   -


 With contributions from (in alphabetic order):
   Ute Becker             : Parallelization
   Dmytro Bykov           : SCF Hessian
   Dmitry Ganyushin       : Spin-Orbit,Spin-Spin,Magnetic field MRCI
   Andreas Hansen         : Spin unrestricted coupled pair/coupled cluster methods
   Dimitrios Liakos       : Extrapolation schemes; parallel MDCI
   Robert Izsak           : Overlap fitted RIJCOSX, COSX-SCS-MP3
   Christian Kollmar      : KDIIS, OOCD, Brueckner-CCSD(T), CCSD density
   Simone Kossmann        : Meta GGA functionals, TD-DFT gradient, OOMP2, MP2 Hessian
   Taras Petrenko         : DFT Hessian,TD-DFT gradient, ASA and ECA modules, normal mode analysis, Resonance Raman, ABS, FL, XAS/XES, NRVS
   Christoph Reimann      : Effective Core Potentials
   Michael Roemelt        : Restricted open shell CIS
   Christoph Riplinger    : Improved optimizer, TS searches, QM/MM, DLPNO-CCSD
   Barbara Sandhoefer     : DKH picture change effects
   Igor Schapiro          : Molecular dynamics
   Kantharuban Sivalingam : CASSCF convergence, NEVPT2
   Boris Wezisla          : Elementary symmetry handling
   Frank Wennmohs         : Technical directorship


 We gratefully acknowledge several colleagues who have allowed us to
 interface, adapt or use parts of their codes:
   Stefan Grimme, W. Hujo, H. Kruse, T. Risthaus : VdW corrections, initial TS optimization,
                                                   DFT functionals, gCP
   Ed Valeev                                     : LibInt (2-el integral package), F12 methods
   Garnet Chan, S. Sharma, R. Olivares           : DMRG
   Ulf Ekstrom                                   : XCFun DFT Library
   Mihaly Kallay                                 : mrcc  (arbitrary order and MRCC methods)
   Andreas Klamt, Michael Diedenhofen            : otool_cosmo (COSMO solvation model)
   Frank Weinhold                                : gennbo (NPA and NBO analysis)
   Christopher J. Cramer and Donald G. Truhlar   : smd solvation model


 Your calculation uses the libint2 library for the computation of 2-el integrals
 For citations please refer to: http://libint.valeyev.net

 This ORCA versions uses:
   CBLAS   interface :  Fast vector & matrix operations
   LAPACKE interface :  Fast linear algebra routines
   SCALAPACK package :  Parallel linear algebra routines


leaving
================================================================================
                                        WARNINGS
                       Please study these warnings very carefully!
================================================================================
Now building the actual basis set

WARNING: Direct SCF is incompatible with Method<>HF and Method<>DFT
  ===> : conventional SCF is chosen

WARNING: The NDO methods need Guess=HUECKEL or Guess=HCORE or Guess=MOREAD
  ===> : Guess is set to Hueckel

WARNING: The NDO methods need %rel::SOCType==1
  ===> : %rel::SOCType is set to 1

WARNING: The NDO methods cannot have frozencore=1
  ===> : %method FrozenCore=0 end


INFO   : the flag for use of LIBINT has been found!

================================================================================
                                       INPUT FILE
================================================================================
NAME = /Users/mattyjones/GoogleDrive/Boise/Code/MorphCT/tests/output_EZ/donor_polymer/chromophores/input_orca/pair/00000-00024.inp
|  1> # ================================================================
|  2> # Orca input file made by Matty Jones
|  3> # ================================================================
|  4> ! ZINDO/S 
|  5> ! NOPOP
|  6> ! NOMOPRINT
|  7> * xyz 0   1
|  8>  C  15.42197  5.05215  33.43731
|  9>  C  15.75618  3.88856  32.74286
| 10>  C  17.03766  3.35337  33.08292
| 11>  C  17.71878  4.09812  34.05078
| 12>  S  16.71375  5.36182  34.42952
| 13>  H  15.14772  3.62359  31.81541
| 14>  C  17.42009  2.00813  32.27813
| 15>  C  16.76011  2.09831  30.67538
| 16>  C  15.15608  1.45464  30.74314
| 17>  H  15.38882  0.31112  30.63185
| 18>  H  14.80479  1.59164  31.84116
| 19>  H  16.73773  3.17864  30.30206
| 20>  H  17.39315  1.44560  29.97845
| 21>  H  16.99754  1.06915  32.80328
| 22>  H  18.57015  1.90446  32.17250
| 23>  C  13.81869  1.66779  29.80722
| 24>  C  13.53635  2.84205  28.61403
| 25>  C  12.57604  4.15306  29.07312
| 26>  H  11.52827  4.04174  28.59154
| 27>  H  13.06483  5.13455  28.70333
| 28>  H  12.47024  4.18079  30.22407
| 29>  H  13.00921  2.32019  27.73087
| 30>  H  14.55627  3.24903  28.26955
| 31>  H  13.63944  0.65655  29.26024
| 32>  H  12.93459  1.81229  30.55345
| 33>  C  -17.02668  -6.73997  -29.34329
| 34>  C  -16.97859  -5.53213  -30.04091
| 35>  C  -17.40740  -4.40056  -29.27936
| 36>  C  -17.79603  -4.71649  -27.97381
| 37>  S  -17.59154  -6.35619  -27.83241
| 38>  H  -16.90359  -5.52238  -31.18219
| 39>  C  -17.35172  -2.98647  -30.06529
| 40>  C  -15.87045  -2.92305  -30.95475
| 41>  C  -15.33590  -1.69529  -31.99494
| 42>  H  -15.08510  -0.76448  -31.36028
| 43>  H  -16.19899  -1.44356  -32.71910
| 44>  H  -15.04679  -3.02889  -30.15128
| 45>  H  -15.86009  -3.85110  -31.63633
| 46>  H  -18.22393  -2.89530  -30.82158
| 47>  H  -17.37482  -2.09190  -29.33305
| 48>  C  -14.02128  -2.16731  -32.84724
| 49>  C  -12.49370  -1.72924  -32.27632
| 50>  C  -11.95949  -0.29111  -32.96987
| 51>  H  -11.65864  -0.48850  -34.07048
| 52>  H  -11.04489  0.10410  -32.38232
| 53>  H  -12.81245  0.48932  -32.93531
| 54>  H  -12.54425  -1.59666  -31.13470
| 55>  H  -11.74453  -2.56382  -32.53886
| 56>  H  -14.11234  -1.74853  -33.92371
| 57>  H  -14.01613  -3.32528  -32.91747
| 58>  H  14.53030  5.61849  33.34902
| 59>  H  18.67687  3.89708  34.45728
| 60>  H  -16.75860  -7.70020  -29.70342
| 61>  H  -18.14771  -4.04793  -27.23020
| 62> *
| 63> 
| 64>                          ****END OF INPUT****
================================================================================

                       ****************************
                       * Single Point Calculation *
                       ****************************

---------------------------------
CARTESIAN COORDINATES (ANGSTROEM)
---------------------------------
  C     15.421970    5.052150   33.437310
  C     15.756180    3.888560   32.742860
  C     17.037660    3.353370   33.082920
  C     17.718780    4.098120   34.050780
  S     16.713750    5.361820   34.429520
  H     15.147720    3.623590   31.815410
  C     17.420090    2.008130   32.278130
  C     16.760110    2.098310   30.675380
  C     15.156080    1.454640   30.743140
  H     15.388820    0.311120   30.631850
  H     14.804790    1.591640   31.841160
  H     16.737730    3.178640   30.302060
  H     17.393150    1.445600   29.978450
  H     16.997540    1.069150   32.803280
  H     18.570150    1.904460   32.172500
  C     13.818690    1.667790   29.807220
  C     13.536350    2.842050   28.614030
  C     12.576040    4.153060   29.073120
  H     11.528270    4.041740   28.591540
  H     13.064830    5.134550   28.703330
  H     12.470240    4.180790   30.224070
  H     13.009210    2.320190   27.730870
  H     14.556270    3.249030   28.269550
  H     13.639440    0.656550   29.260240
  H     12.934590    1.812290   30.553450
  C    -17.026680   -6.739970  -29.343290
  C    -16.978590   -5.532130  -30.040910
  C    -17.407400   -4.400560  -29.279360
  C    -17.796030   -4.716490  -27.973810
  S    -17.591540   -6.356190  -27.832410
  H    -16.903590   -5.522380  -31.182190
  C    -17.351720   -2.986470  -30.065290
  C    -15.870450   -2.923050  -30.954750
  C    -15.335900   -1.695290  -31.994940
  H    -15.085100   -0.764480  -31.360280
  H    -16.198990   -1.443560  -32.719100
  H    -15.046790   -3.028890  -30.151280
  H    -15.860090   -3.851100  -31.636330
  H    -18.223930   -2.895300  -30.821580
  H    -17.374820   -2.091900  -29.333050
  C    -14.021280   -2.167310  -32.847240
  C    -12.493700   -1.729240  -32.276320
  C    -11.959490   -0.291110  -32.969870
  H    -11.658640   -0.488500  -34.070480
  H    -11.044890    0.104100  -32.382320
  H    -12.812450    0.489320  -32.935310
  H    -12.544250   -1.596660  -31.134700
  H    -11.744530   -2.563820  -32.538860
  H    -14.112340   -1.748530  -33.923710
  H    -14.016130   -3.325280  -32.917470
  H     14.530300    5.618490   33.349020
  H     18.676870    3.897080   34.457280
  H    -16.758600   -7.700200  -29.703420
  H    -18.147710   -4.047930  -27.230200

----------------------------
CARTESIAN COORDINATES (A.U.)
----------------------------
  NO LB      ZA    FRAG    MASS        X           Y           Z
   0 C     4.0000    0    12.011         29.143299745549527          9.547179887490252         63.187358555026400
   1 C     4.0000    0    12.011         29.774865116767348          7.348313455320822         61.875038241324795
   2 C     4.0000    0    12.011         32.196511362864747          6.336950925707508         62.517658510426060
   3 C     4.0000    0    12.011         33.483641627201195          7.744324463945359         64.346648846403085
   4 S     6.0000    0    32.060         31.584410170826320         10.132371379381645         65.062363722364410
   5 H     1.0000    0     1.008         28.625042353321621          6.847592721615708         60.122411738419530
   6 C     4.0000    0    12.011         32.919199328260255          3.794815741311283         60.996825815107563
   7 C     4.0000    0    12.011         31.672017874394911          3.965231244068302         57.968067253965287
   8 C     4.0000    0    12.011         28.640840463801201          2.748871223447209         58.096115096799792
   9 H     1.0000    0     1.008         29.080655324210039          0.587931594785580         57.885807475355691
  10 H     1.0000    0     1.008         27.976998570216008          3.007763703794421         60.171072186368001
  11 H     1.0000    0     1.008         31.629725803517751          6.006759078327447         57.262594693649802
  12 H     1.0000    0     1.008         32.868290106212413          2.731788099196562         56.651060419451547
  13 H     1.0000    0     1.008         32.120695550371835          2.020400696081906         61.989215494336321
  14 H     1.0000    0     1.008         35.092497765837734          3.598907833007667         60.797214043581469
  15 C     4.0000    0    12.011         26.113539629556261          3.151666348892525         56.327482613540212
  16 C     4.0000    0    12.011         25.579994352904937          5.370696158910893         54.072680287806712
  17 C     4.0000    0    12.011         23.765271449239020          7.848146017742994         54.940234658628619
  18 H     1.0000    0     1.008         21.785273097900347          7.637781704514880         54.030180347054824
  19 H     1.0000    0     1.008         24.688950686238389          9.702893320925362         54.241432831565881
  20 H     1.0000    0     1.008         23.565338424270148          7.900548123436629         57.115214952465287
  21 H     1.0000    0     1.008         24.583844118669685          4.384523678662749         52.403749755372822
  22 H     1.0000    0     1.008         27.507363831413898          6.139776900894164         53.421707429193518
  23 H     1.0000    0     1.008         25.774806220050877          1.240699693225998         55.293840212807964
  24 H     1.0000    0     1.008         24.442832754556484          3.424731775244145         57.737652946456272
  25 C     4.0000    0    12.011        -32.175762169914293        -12.736697450845218        -55.450781968230125
  26 C     4.0000    0    12.011        -32.084885240134028        -10.454210637249775        -56.769092713776267
  27 C     4.0000    0    12.011        -32.895218703620792         -8.315853235888502        -55.329971776488541
  28 C     4.0000    0    12.011        -33.629622971046608         -8.912874413378244        -52.862839822347652
  29 S     6.0000    0    32.060        -33.243192873921053        -12.011458355168919        -52.595632547011185
  30 H     1.0000    0     1.008        -31.943155780089931        -10.435785807444041        -58.925799355897908
  31 C     4.0000    0    12.011        -32.789998752484060         -5.643610407171801        -56.815164236921269
  32 C     4.0000    0    12.011        -29.990804122090527         -5.523763975758515        -58.496000043998869
  33 C     4.0000    0    12.011        -28.980651017202923         -3.203633817575358        -60.461674271242408
  34 H     1.0000    0     1.008        -28.506707702815476         -1.444657834860118        -59.262340683087949
  35 H     1.0000    0     1.008        -30.611654746129012         -2.727933057883362        -61.830138348382818
  36 H     1.0000    0     1.008        -28.434312294624949         -5.723772589772740        -56.977661787177155
  37 H     1.0000    0     1.008        -29.971226559343105         -7.277524314344133        -59.783999582356913
  38 H     1.0000    0     1.008        -34.438236783751513         -5.471324075542200        -58.244345214744577
  39 H     1.0000    0     1.008        -32.833651426177639         -3.953118099549866        -55.431431172618773
  40 C     4.0000    0    12.011        -26.496379247027370         -4.095622347308868        -62.072287855183497
  41 C     4.0000    0    12.011        -23.609671399371944         -3.267790019821986        -60.993405410805167
  42 C     4.0000    0    12.011        -22.600160801369871         -0.550118174845815        -62.304024970986255
  43 H     1.0000    0     1.008        -22.031636693979660         -0.923131216420531        -64.383876451241335
  44 H     1.0000    0     1.008        -20.871817279285494          0.196720490541202        -61.193716381000826
  45 H     1.0000    0     1.008        -24.212021604559339          0.924680791850347        -62.238716035797943
  46 H     1.0000    0     1.008        -23.705197055441662         -3.017250128986706        -58.836056261797992
  47 H     1.0000    0     1.008        -22.193945271622155         -4.844917656669984        -61.489534110004861
  48 H     1.0000    0     1.008        -26.668457708782235         -3.304242836945326        -64.106521346565700
  49 H     1.0000    0     1.008        -26.486647157437673         -6.283868518605660        -62.205003321568789
  50 H     1.0000    0     1.008         27.458287643715963         10.617407386175215         63.020514634662504
  51 H     1.0000    0     1.008         35.294169338849812          7.364413921981831         65.114822519842065
  52 H     1.0000    0     1.008        -31.669164387932689        -14.551269176420421        -56.131329040839191
  53 H     1.0000    0     1.008        -34.294201857824035         -7.649479109283853        -51.457620571902467

--------------------------------
INTERNAL COORDINATES (ANGSTROEM)
--------------------------------
 C      0   0   0   0.000000     0.000     0.000
 C      1   0   0   1.395671     0.000     0.000
 C      2   1   0   1.429776   114.102     0.000
 C      3   2   1   1.398331   113.693     0.000
 S      1   2   3   1.658032   105.480     0.000
 H      2   1   3   1.140437   118.073   195.318
 C      3   2   1   1.613571   113.946   179.989
 C      7   3   2   1.735659   109.095    34.394
 C      8   7   3   1.729686   107.284   271.669
 H      9   8   7   1.172259   100.089   275.528
 H      9   8   7   1.160957   105.887    24.825
 H      8   7   3   1.143233   110.983    32.184
 H      8   7   3   1.145636   108.786   153.989
 H      7   3   2   1.155861   111.347   274.262
 H      7   3   2   1.159544   110.796   152.326
 C      9   8   7   1.646205   133.073   156.109
 C     16   9   8   1.697735   128.626   347.435
 C     17  16   9   1.688700   116.134   259.070
 H     18  17  16   1.158505   109.069   254.118
 H     18  17  16   1.157144   109.354   134.628
 H     18  17  16   1.156135   109.956    14.169
 H     17  16   9   1.153337   107.531   138.745
 H     17  16   9   1.150885   107.913    20.564
 H     16   9   8   1.163582   106.253   111.473
 H     16   9   8   1.165921   105.557   224.841
 C     22  17  16  65.128342   160.870   176.153
 C     26  22  17   1.395659   107.563     7.634
 C     27  26  22   1.429786   114.101   310.204
 C     28  27  26   1.398323   113.693     0.000
 S     26  22  17   1.658045    47.652   272.452
 H     27  26  22   1.143783   120.557   147.134
 C     28  27  26   1.618776   114.989   179.645
 C     32  28  27   1.728966   108.136   317.339
 C     33  32  28   1.695622   127.752   177.413
 H     34  33  32   1.154167   108.368    69.722
 H     34  33  32   1.154426   107.879   311.416
 H     33  32  28   1.155501   104.455   300.771
 H     33  32  28   1.151493   106.418    56.408
 H     32  28  27   1.158031   111.097    75.501
 H     32  28  27   1.156272   111.573   198.300
 C     34  33  32   1.636290   111.342   191.017
 C     41  34  33   1.688596   118.415   263.521
 C     42  41  34   1.683630   111.676   266.681
 H     43  42  41   1.157936   109.170   286.673
 H     43  42  41   1.156676   109.481   166.681
 H     43  42  41   1.156636   109.272    46.495
 H     42  41  34   1.150404   109.006    27.079
 H     42  41  34   1.151828   108.866   146.801
 H     41  34  33   1.158644   108.453   141.524
 H     41  34  33   1.160109   108.847    24.555
 H      1   2   3   1.060005   127.260   180.000
 H      4   3   2   1.059998   127.206   180.000
 H     26  22  17   1.060001   107.885   147.936
 H     29  28  27   1.060003   127.206   180.000

---------------------------
INTERNAL COORDINATES (A.U.)
---------------------------
 C      0   0   0   0.000000     0.000     0.000
 C      1   0   0   2.637437     0.000     0.000
 C      2   1   0   2.701886   114.102     0.000
 C      3   2   1   2.642463   113.693     0.000
 S      1   2   3   3.133227   105.480     0.000
 H      2   1   3   2.155113   118.073   195.318
 C      3   2   1   3.049207   113.946   179.989
 C      7   3   2   3.279921   109.095    34.394
 C      8   7   3   3.268633   107.284   271.669
 H      9   8   7   2.215249   100.089   275.528
 H      9   8   7   2.193891   105.887    24.825
 H      8   7   3   2.160397   110.983    32.184
 H      8   7   3   2.164938   108.786   153.989
 H      7   3   2   2.184261   111.347   274.262
 H      7   3   2   2.191221   110.796   152.326
 C      9   8   7   3.110877   133.073   156.109
 C     16   9   8   3.208255   128.626   347.435
 C     17  16   9   3.191180   116.134   259.070
 H     18  17  16   2.189257   109.069   254.118
 H     18  17  16   2.186686   109.354   134.628
 H     18  17  16   2.184779   109.956    14.169
 H     17  16   9   2.179491   107.531   138.745
 H     17  16   9   2.174857   107.913    20.564
 H     16   9   8   2.198852   106.253   111.473
 H     16   9   8   2.203272   105.557   224.841
 C     22  17  16 123.074730   160.870   176.153
 C     26  22  17   2.637413   107.563     7.634
 C     27  26  22   2.701903   114.101   310.204
 C     28  27  26   2.642447   113.693     0.000
 S     26  22  17   3.133250    47.652   272.452
 H     27  26  22   2.161437   120.557   147.134
 C     28  27  26   3.059044   114.989   179.645
 C     32  28  27   3.267271   108.136   317.339
 C     33  32  28   3.204261   127.752   177.413
 H     34  33  32   2.181059   108.368    69.722
 H     34  33  32   2.181550   107.879   311.416
 H     33  32  28   2.183580   104.455   300.771
 H     33  32  28   2.176006   106.418    56.408
 H     32  28  27   2.188362   111.097    75.501
 H     32  28  27   2.185037   111.573   198.300
 C     34  33  32   3.092139   111.342   191.017
 C     41  34  33   3.190984   118.415   263.521
 C     42  41  34   3.181600   111.676   266.681
 H     43  42  41   2.188182   109.170   286.673
 H     43  42  41   2.185801   109.481   166.681
 H     43  42  41   2.185725   109.272    46.495
 H     42  41  34   2.173948   109.006    27.079
 H     42  41  34   2.176639   108.866   146.801
 H     41  34  33   2.189520   108.453   141.524
 H     41  34  33   2.192289   108.847    24.555
 H      1   2   3   2.003120   127.260   180.000
 H      4   3   2   2.003106   127.206   180.000
 H     26  22  17   2.003112   107.885   147.936
 H     29  28  27   2.003116   127.206   180.000

----------------------------
SLATER BASIS SET DIM= 120
----------------------------
  0 C     2 shells
 l=0 nsto= 1
    2       1.625000000000        1.000000000000
 l=1 nsto= 1
    2       1.625000000000        1.000000000000
  1 C     2 shells
 l=0 nsto= 1
    2       1.625000000000        1.000000000000
 l=1 nsto= 1
    2       1.625000000000        1.000000000000
  2 C     2 shells
 l=0 nsto= 1
    2       1.625000000000        1.000000000000
 l=1 nsto= 1
    2       1.625000000000        1.000000000000
  3 C     2 shells
 l=0 nsto= 1
    2       1.625000000000        1.000000000000
 l=1 nsto= 1
    2       1.625000000000        1.000000000000
  4 S     2 shells
 l=0 nsto= 1
    3       1.925000000000        1.000000000000
 l=1 nsto= 1
    3       1.925000000000        1.000000000000
  5 H     1 shells
 l=0 nsto= 1
    1       1.200000000000        1.000000000000
  6 C     2 shells
 l=0 nsto= 1
    2       1.625000000000        1.000000000000
 l=1 nsto= 1
    2       1.625000000000        1.000000000000
  7 C     2 shells
 l=0 nsto= 1
    2       1.625000000000        1.000000000000
 l=1 nsto= 1
    2       1.625000000000        1.000000000000
  8 C     2 shells
 l=0 nsto= 1
    2       1.625000000000        1.000000000000
 l=1 nsto= 1
    2       1.625000000000        1.000000000000
  9 H     1 shells
 l=0 nsto= 1
    1       1.200000000000        1.000000000000
 10 H     1 shells
 l=0 nsto= 1
    1       1.200000000000        1.000000000000
 11 H     1 shells
 l=0 nsto= 1
    1       1.200000000000        1.000000000000
 12 H     1 shells
 l=0 nsto= 1
    1       1.200000000000        1.000000000000
 13 H     1 shells
 l=0 nsto= 1
    1       1.200000000000        1.000000000000
 14 H     1 shells
 l=0 nsto= 1
    1       1.200000000000        1.000000000000
 15 C     2 shells
 l=0 nsto= 1
    2       1.625000000000        1.000000000000
 l=1 nsto= 1
    2       1.625000000000        1.000000000000
 16 C     2 shells
 l=0 nsto= 1
    2       1.625000000000        1.000000000000
 l=1 nsto= 1
    2       1.625000000000        1.000000000000
 17 C     2 shells
 l=0 nsto= 1
    2       1.625000000000        1.000000000000
 l=1 nsto= 1
    2       1.625000000000        1.000000000000
 18 H     1 shells
 l=0 nsto= 1
    1       1.200000000000        1.000000000000
 19 H     1 shells
 l=0 nsto= 1
    1       1.200000000000        1.000000000000
 20 H     1 shells
 l=0 nsto= 1
    1       1.200000000000        1.000000000000
 21 H     1 shells
 l=0 nsto= 1
    1       1.200000000000        1.000000000000
 22 H     1 shells
 l=0 nsto= 1
    1       1.200000000000        1.000000000000
 23 H     1 shells
 l=0 nsto= 1
    1       1.200000000000        1.000000000000
 24 H     1 shells
 l=0 nsto= 1
    1       1.200000000000        1.000000000000
 25 C     2 shells
 l=0 nsto= 1
    2       1.625000000000        1.000000000000
 l=1 nsto= 1
    2       1.625000000000        1.000000000000
 26 C     2 shells
 l=0 nsto= 1
    2       1.625000000000        1.000000000000
 l=1 nsto= 1
    2       1.625000000000        1.000000000000
 27 C     2 shells
 l=0 nsto= 1
    2       1.625000000000        1.000000000000
 l=1 nsto= 1
    2       1.625000000000        1.000000000000
 28 C     2 shells
 l=0 nsto= 1
    2       1.625000000000        1.000000000000
 l=1 nsto= 1
    2       1.625000000000        1.000000000000
 29 S     2 shells
 l=0 nsto= 1
    3       1.925000000000        1.000000000000
 l=1 nsto= 1
    3       1.925000000000        1.000000000000
 30 H     1 shells
 l=0 nsto= 1
    1       1.200000000000        1.000000000000
 31 C     2 shells
 l=0 nsto= 1
    2       1.625000000000        1.000000000000
 l=1 nsto= 1
    2       1.625000000000        1.000000000000
 32 C     2 shells
 l=0 nsto= 1
    2       1.625000000000        1.000000000000
 l=1 nsto= 1
    2       1.625000000000        1.000000000000
 33 C     2 shells
 l=0 nsto= 1
    2       1.625000000000        1.000000000000
 l=1 nsto= 1
    2       1.625000000000        1.000000000000
 34 H     1 shells
 l=0 nsto= 1
    1       1.200000000000        1.000000000000
 35 H     1 shells
 l=0 nsto= 1
    1       1.200000000000        1.000000000000
 36 H     1 shells
 l=0 nsto= 1
    1       1.200000000000        1.000000000000
 37 H     1 shells
 l=0 nsto= 1
    1       1.200000000000        1.000000000000
 38 H     1 shells
 l=0 nsto= 1
    1       1.200000000000        1.000000000000
 39 H     1 shells
 l=0 nsto= 1
    1       1.200000000000        1.000000000000
 40 C     2 shells
 l=0 nsto= 1
    2       1.625000000000        1.000000000000
 l=1 nsto= 1
    2       1.625000000000        1.000000000000
 41 C     2 shells
 l=0 nsto= 1
    2       1.625000000000        1.000000000000
 l=1 nsto= 1
    2       1.625000000000        1.000000000000
 42 C     2 shells
 l=0 nsto= 1
    2       1.625000000000        1.000000000000
 l=1 nsto= 1
    2       1.625000000000        1.000000000000
 43 H     1 shells
 l=0 nsto= 1
    1       1.200000000000        1.000000000000
 44 H     1 shells
 l=0 nsto= 1
    1       1.200000000000        1.000000000000
 45 H     1 shells
 l=0 nsto= 1
    1       1.200000000000        1.000000000000
 46 H     1 shells
 l=0 nsto= 1
    1       1.200000000000        1.000000000000
 47 H     1 shells
 l=0 nsto= 1
    1       1.200000000000        1.000000000000
 48 H     1 shells
 l=0 nsto= 1
    1       1.200000000000        1.000000000000
 49 H     1 shells
 l=0 nsto= 1
    1       1.200000000000        1.000000000000
 50 H     1 shells
 l=0 nsto= 1
    1       1.200000000000        1.000000000000
 51 H     1 shells
 l=0 nsto= 1
    1       1.200000000000        1.000000000000
 52 H     1 shells
 l=0 nsto= 1
    1       1.200000000000        1.000000000000
 53 H     1 shells
 l=0 nsto= 1
    1       1.200000000000        1.000000000000
------------------------------------------------------------------------------
                           ORCA NDO INTEGRAL CALCULATION
------------------------------------------------------------------------------

--------------
NDO PARAMETERS
--------------

Gamma integral treatment              ... Mataga-Nishimoto
Nuclear repulsuion treatment          ... Direct (ZA*ZB/RAB)
Interaction factors:
s-s (sigma) =    1.0000
s-p (sigma) =    1.0000
s-d (sigma) =    1.0000
p-p (sigma) =    1.2670  p-p(pi) =    0.5850
p-d (sigma) =    1.0000  p-d(pi) =    1.0000
d-d (sigma) =    1.0000  d-d(pi) =    1.0000 d-d (delta) =    1.0000

fGamma parameter for Mataga-Nishimoto gamma integrals:    1.2000

--------------------------
Parameters for Element H :
--------------------------
 One-electron parameters (in eV)
  U(s)  =   -13.060000 Beta(s) =    12.000000 Neff(s) =     1.000000
 One-center electron repulsion parameters (in eV)
  G(s,s)=    12.850000
--------------------------
Parameters for Element C :
--------------------------
 One-electron parameters (in eV)
  U(s)  =   -50.870766 Beta(s) =    17.000000 Neff(s) =     2.000000
  U(p)  =   -41.599980 Beta(p) =    17.000000 Neff(p) =     2.000000 
 One-center electron repulsion parameters (in eV)
  G(s,s)=    11.110000
  G(s,p)=    11.110000 G(p,p)  =    11.110000
 Slater-Condon parameters (in eV)
 F2(p,p)=     4.5098 G1(s,p)=    6.8977
--------------------------
Parameters for Element S :
--------------------------
 One-electron parameters (in eV)
  U(s)  =   -69.509597 Beta(s) =    15.000000 Neff(s) =     2.000000
  U(p)  =   -60.725746 Beta(p) =    15.000000 Neff(p) =     4.000000 
 One-center electron repulsion parameters (in eV)
  G(s,s)=    10.090000
  G(s,p)=    10.090000 G(p,p)  =    10.090000
 Slater-Condon parameters (in eV)
 F2(p,p)=     4.5377 G1(s,p)=    3.0756

 Number of atoms                    ....   54
 Number of basis functions          ....  120

 Overlap integrals                  .... done
 One electron matrix                .... done
 Nuclear repulsion                  .... done
 Integral list                      .... done
 Electron-electron repulsion        .... done
-------------------------------------------------------------------------------
                                 ORCA SCF
-------------------------------------------------------------------------------

------------
SCF SETTINGS
------------
Hamiltonian:
 ZDO-Hamiltonian        Method          .... INDO


General Settings:
 Integral files         IntName         .... /Users/mattyjones/GoogleDrive/Boise/Code/MorphCT/tests/output_EZ/donor_polymer/chromophores/input_orca/pair/00000-00024
 Hartree-Fock type      HFTyp           .... RHF
 Total Charge           Charge          ....    0
 Multiplicity           Mult            ....    1
 Number of Electrons    NEL             ....  124
 Basis Dimension        Dim             ....  120
 Nuclear Repulsion      ENuc            ....    627.2795032167 Eh

Convergence Acceleration:
 DIIS                   CNVDIIS         .... on
   Start iteration      DIISMaxIt       ....    12
   Startup error        DIISStart       ....  0.200000
   # of expansion vecs  DIISMaxEq       ....     5
   Bias factor          DIISBfac        ....   1.050
   Max. coefficient     DIISMaxC        ....  10.000
 Newton-Raphson         CNVNR           .... off
 SOSCF                  CNVSOSCF        .... on
   Start iteration      SOSCFMaxIt      ....   150
   Startup grad/error   SOSCFStart      ....  0.003300
 Level Shifting         CNVShift        .... on
   Level shift para.    LevelShift      ....    0.2500
   Turn off err/grad.   ShiftErr        ....    0.0010
 Zerner damping         CNVZerner       .... off
 Static damping         CNVDamp         .... on
   Fraction old density DampFac         ....    0.7000
   Max. Damping (<1)    DampMax         ....    0.9800
   Min. Damping (>=0)   DampMin         ....    0.0000
   Turn off err/grad.   DampErr         ....    0.1000
 Fernandez-Rico         CNVRico         .... off

SCF Procedure:
 Maximum # iterations   MaxIter         ....   125
 SCF integral mode      SCFMode         .... Conventional
 Integral Buffer length BufferLength    .... 1048576
 Integral index format  IndFormat       ....     0
 Integral value format  ValFormat       ....     0
 Integral Storage       Thresh          ....  1.000e-08 Eh

Convergence Tolerance:
 Convergence Check Mode ConvCheckMode   .... Total+1el-Energy
 Energy Change          TolE            ....  1.000e-06 Eh
 1-El. energy change                    ....  1.000e-03 Eh
 Orbital Gradient       TolG            ....  5.000e-05
 Orbital Rotation angle TolX            ....  5.000e-05
 DIIS Error             TolErr          ....  1.000e-06


Diagonalization of the overlap matrix:
Smallest eigenvalue                        ... 1.695e-01
Time for diagonalization                   ...    0.003 sec
Threshold for overlap eigenvalues          ... 1.000e-08
Number of eigenvalues below threshold      ... 0
Time for construction of square roots      ...    0.000 sec
Total time needed                          ...    0.004 sec

-------------------------------
INITIAL GUESS: EXTENDED HUECKEL
-------------------------------
EHT matrix was read from disk
EHT matrix was diagonalized
Initial density was built
                      ------------------
                      INITIAL GUESS DONE
                      ------------------

 InCore treatment chosen:
   Memory dedicated               ...    1024 MB
   Memory needed                  ...      0 MB
   Number of tiny    integrals    ...       0
   Number of small   integrals    ...       0
   Number of regular integrals    ...    7392

--------------
SCF ITERATIONS
--------------
ITER       Energy         Delta-E        Max-DP      RMS-DP      [F,P]     Damp
  0    -15.9977467254   0.000000000000 0.04441212  0.00144573  0.1136732 0.7000
  1    -16.0395633515  -0.041816626180 0.04346181  0.00136367  0.0776155 0.7000
                               ***Turning on DIIS***
  2    -16.0705495769  -0.030986225396 0.11494878  0.00350671  0.0469059 0.0000
  3    -16.1499366963  -0.079387119408 0.02078952  0.00073613  0.0216013 0.0000
  4    -16.1364922129   0.013444483462 0.01509882  0.00050432  0.0086226 0.0000
  5    -16.1539506823  -0.017458469421 0.01058130  0.00034031  0.0050942 0.0000
  6    -16.1568214097  -0.002870727379 0.00812084  0.00024142  0.0029440 0.0000
                      *** Initiating the SOSCF procedure ***
                           *** Shutting down DIIS ***
                      *** Re-Reading the Fockian *** 
                      *** Removing any level shift *** 
ITER      Energy       Delta-E        Grad      Rot      Max-DP    RMS-DP
  7    -16.15250728   0.0043141256  0.003033  0.003033  0.004884  0.000136
  8    -16.15023594   0.0022713402  0.000824  0.002286  0.002461  0.000064
  9    -16.15025118  -0.0000152344  0.000364  0.002244  0.002789  0.000068
 10    -16.15025681  -0.0000056284  0.000033  0.000087  0.000150  0.000005
                 **** Energy Check signals convergence ****
              ***Rediagonalizing the Fockian in SOSCF/NRSCF***

               *****************************************************
               *                     SUCCESS                       *
               *           SCF CONVERGED AFTER  11 CYCLES          *
               *****************************************************


----------------
TOTAL SCF ENERGY
----------------

Total Energy       :          -16.15025686 Eh            -439.47083 eV

Components:
Nuclear Repulsion  :          627.27950322 Eh           17069.14306 eV
Electronic Energy  :         -643.42976008 Eh          -17508.61389 eV

One Electron Energy:        -1196.52900511 Eh          -32559.20951 eV
Two Electron Energy:          553.09924502 Eh           15050.59561 eV


---------------
SCF CONVERGENCE
---------------

  Last Energy change         ...   -5.7273e-08  Tolerance :   1.0000e-06
  Last MAX-Density change    ...    7.2464e-05  Tolerance :   1.0000e-05
  Last RMS-Density change    ...    1.6157e-06  Tolerance :   1.0000e-06
  Last Orbital Gradient      ...    1.4027e-05  Tolerance :   5.0000e-05
  Last Orbital Rotation      ...    2.7862e-05  Tolerance :   5.0000e-05

             **** THE GBW FILE WAS UPDATED (/Users/mattyjones/GoogleDrive/Boise/Code/MorphCT/tests/output_EZ/donor_polymer/chromophores/input_orca/pair/00000-00024.gbw) ****
             **** DENSITY FILE WAS UPDATED (/Users/mattyjones/GoogleDrive/Boise/Code/MorphCT/tests/output_EZ/donor_polymer/chromophores/input_orca/pair/00000-00024.scfp.tmp) ****
             **** ENERGY FILE WAS UPDATED (/Users/mattyjones/GoogleDrive/Boise/Code/MorphCT/tests/output_EZ/donor_polymer/chromophores/input_orca/pair/00000-00024.en.tmp) ****
----------------
ORBITAL ENERGIES
----------------

  NO   OCC          E(Eh)            E(eV) 
   0   2.0000      -1.565891       -42.6101 
   1   2.0000      -1.561818       -42.4992 
   2   2.0000      -1.401136       -38.1268 
   3   2.0000      -1.384721       -37.6802 
   4   2.0000      -1.302071       -35.4312 
   5   2.0000      -1.292250       -35.1639 
   6   2.0000      -1.186019       -32.2732 
   7   2.0000      -1.176547       -32.0155 
   8   2.0000      -1.120587       -30.4927 
   9   2.0000      -1.120121       -30.4800 
  10   2.0000      -1.022897       -27.8344 
  11   2.0000      -1.017076       -27.6761 
  12   2.0000      -0.968081       -26.3428 
  13   2.0000      -0.949077       -25.8257 
  14   2.0000      -0.926688       -25.2165 
  15   2.0000      -0.914212       -24.8770 
  16   2.0000      -0.854188       -23.2436 
  17   2.0000      -0.843443       -22.9513 
  18   2.0000      -0.838350       -22.8127 
  19   2.0000      -0.825757       -22.4700 
  20   2.0000      -0.776271       -21.1234 
  21   2.0000      -0.773318       -21.0430 
  22   2.0000      -0.746679       -20.3182 
  23   2.0000      -0.726226       -19.7616 
  24   2.0000      -0.706641       -19.2287 
  25   2.0000      -0.684581       -18.6284 
  26   2.0000      -0.675943       -18.3934 
  27   2.0000      -0.674369       -18.3505 
  28   2.0000      -0.640135       -17.4190 
  29   2.0000      -0.639741       -17.4082 
  30   2.0000      -0.623674       -16.9710 
  31   2.0000      -0.596521       -16.2322 
  32   2.0000      -0.589836       -16.0502 
  33   2.0000      -0.583026       -15.8649 
  34   2.0000      -0.575945       -15.6723 
  35   2.0000      -0.575314       -15.6551 
  36   2.0000      -0.573907       -15.6168 
  37   2.0000      -0.569629       -15.5004 
  38   2.0000      -0.551803       -15.0153 
  39   2.0000      -0.550305       -14.9746 
  40   2.0000      -0.537744       -14.6328 
  41   2.0000      -0.530153       -14.4262 
  42   2.0000      -0.528289       -14.3755 
  43   2.0000      -0.514674       -14.0050 
  44   2.0000      -0.506318       -13.7776 
  45   2.0000      -0.504984       -13.7413 
  46   2.0000      -0.492937       -13.4135 
  47   2.0000      -0.490373       -13.3437 
  48   2.0000      -0.489414       -13.3176 
  49   2.0000      -0.488589       -13.2952 
  50   2.0000      -0.476574       -12.9682 
  51   2.0000      -0.474676       -12.9166 
  52   2.0000      -0.468520       -12.7491 
  53   2.0000      -0.464618       -12.6429 
  54   2.0000      -0.463037       -12.5999 
  55   2.0000      -0.446230       -12.1425 
  56   2.0000      -0.435198       -11.8423 
  57   2.0000      -0.433516       -11.7966 
  58   2.0000      -0.352967        -9.6047 
  59   2.0000      -0.352443        -9.5905 
  60   2.0000      -0.305063        -8.3012 
  61   2.0000      -0.304175        -8.2770 
  62   0.0000       0.007739         0.2106 
  63   0.0000       0.008824         0.2401 
  64   0.0000       0.065378         1.7790 
  65   0.0000       0.067615         1.8399 
  66   0.0000       0.071006         1.9322 
  67   0.0000       0.071802         1.9538 
  68   0.0000       0.085717         2.3325 
  69   0.0000       0.091117         2.4794 
  70   0.0000       0.099978         2.7205 
  71   0.0000       0.104744         2.8502 
  72   0.0000       0.108084         2.9411 
  73   0.0000       0.108798         2.9606 
  74   0.0000       0.122476         3.3327 
  75   0.0000       0.124326         3.3831 
  76   0.0000       0.139296         3.7904 
  77   0.0000       0.142173         3.8687 
  78   0.0000       0.157734         4.2922 
  79   0.0000       0.158431         4.3111 
  80   0.0000       0.164630         4.4798 
  81   0.0000       0.165697         4.5088 
  82   0.0000       0.172543         4.6951 
  83   0.0000       0.176908         4.8139 
  84   0.0000       0.203210         5.5296 
  85   0.0000       0.204495         5.5646 
  86   0.0000       0.228639         6.2216 
  87   0.0000       0.233463         6.3528 
  88   0.0000       0.235124         6.3981 
  89   0.0000       0.236325         6.4307 
  90   0.0000       0.236589         6.4379 
  91   0.0000       0.238211         6.4821 
  92   0.0000       0.238603         6.4927 
  93   0.0000       0.238879         6.5002 
  94   0.0000       0.240011         6.5310 
  95   0.0000       0.241030         6.5588 
  96   0.0000       0.242406         6.5962 
  97   0.0000       0.243252         6.6192 
  98   0.0000       0.244226         6.6457 
  99   0.0000       0.244320         6.6483 
 100   0.0000       0.245521         6.6810 
 101   0.0000       0.247114         6.7243 
 102   0.0000       0.255744         6.9591 
 103   0.0000       0.259554         7.0628 
 104   0.0000       0.267252         7.2723 
 105   0.0000       0.267617         7.2822 
 106   0.0000       0.270086         7.3494 
 107   0.0000       0.287019         7.8102 
 108   0.0000       0.294473         8.0130 
 109   0.0000       0.307997         8.3810 
 110   0.0000       0.310695         8.4544 
 111   0.0000       0.311140         8.4666 
 112   0.0000       0.337285         9.1780 
 113   0.0000       0.339018         9.2251 
 114   0.0000       0.348103         9.4724 
 115   0.0000       0.365697         9.9511 
 116   0.0000       0.419937        11.4271 
 117   0.0000       0.420420        11.4402 
 118   0.0000       0.424347        11.5471 
 119   0.0000       0.425013        11.5652 
-------
TIMINGS
-------

Total SCF time: 0 days 0 hours 0 min 0 sec 

Total time                  ....       0.132 sec
Sum of individual times     ....       0.110 sec  ( 82.8%)

Fock matrix formation       ....       0.051 sec  ( 38.3%)
Diagonalization             ....       0.023 sec  ( 17.6%)
Density matrix formation    ....       0.005 sec  (  3.9%)
Population analysis         ....       0.000 sec  (  0.0%)
Initial guess               ....       0.003 sec  (  2.4%)
Orbital Transformation      ....       0.000 sec  (  0.0%)
Orbital Orthonormalization  ....       0.000 sec  (  0.0%)
DIIS solution               ....       0.018 sec  ( 13.9%)
SOSCF solution              ....       0.009 sec  (  6.7%)

-------------------------   --------------------
FINAL SINGLE POINT ENERGY       -16.150256863968
-------------------------   --------------------


                            ***************************************
                            *     ORCA property calculations      *
                            ***************************************

                                    ---------------------
                                    Active property flags
                                    ---------------------
   (+) Dipole Moment


------------------------------------------------------------------------------
                       ORCA ELECTRIC PROPERTIES CALCULATION
------------------------------------------------------------------------------

Dipole Moment Calculation                       ... on
Quadrupole Moment Calculation                   ... off
Polarizability Calculation                      ... off
GBWName                                         ... /Users/mattyjones/GoogleDrive/Boise/Code/MorphCT/tests/output_EZ/donor_polymer/chromophores/input_orca/pair/00000-00024.gbw
Electron density file                           ... /Users/mattyjones/GoogleDrive/Boise/Code/MorphCT/tests/output_EZ/donor_polymer/chromophores/input_orca/pair/00000-00024.scfp.tmp

-------------
DIPOLE MOMENT
-------------
                                X             Y             Z
Electronic contribution:    -20.19707     -30.72178     181.32613
Nuclear contribution   :     12.75044      17.20719     -93.73342
                        -----------------------------------------
Total Dipole Moment    :     -7.44662     -13.51459      87.59271
                        -----------------------------------------
Magnitude (a.u.)       :     88.94144
Magnitude (Debye)      :    226.07117


Timings for individual modules:

Sum of individual times         ...        0.222 sec (=   0.004 min)
STO integral calculation        ...        0.048 sec (=   0.001 min)  21.5 %
SCF iterations                  ...        0.174 sec (=   0.003 min)  78.5 %
                             ****ORCA TERMINATED NORMALLY****
TOTAL RUN TIME: 0 days 0 hours 0 minutes 0 seconds 527 msec

