
                                 *****************
                                 * O   R   C   A *
                                 *****************

           --- An Ab Initio, DFT and Semiempirical electronic structure package ---

                  #######################################################
                  #                        -***-                        #
                  #  Department of molecular theory and spectroscopy    #
                  #              Directorship: Frank Neese              #
                  # Max Planck Institute for Chemical Energy Conversion #
                  #                  D-45470 Muelheim/Ruhr              #
                  #                       Germany                       #
                  #                                                     #
                  #                  All rights reserved                #
                  #                        -***-                        #
                  #######################################################


                         Program Version 3.0.3 - RELEASE   -


 With contributions from (in alphabetic order):
   Ute Becker             : Parallelization
   Dmytro Bykov           : SCF Hessian
   Dmitry Ganyushin       : Spin-Orbit,Spin-Spin,Magnetic field MRCI
   Andreas Hansen         : Spin unrestricted coupled pair/coupled cluster methods
   Dimitrios Liakos       : Extrapolation schemes; parallel MDCI
   Robert Izsak           : Overlap fitted RIJCOSX, COSX-SCS-MP3
   Christian Kollmar      : KDIIS, OOCD, Brueckner-CCSD(T), CCSD density
   Simone Kossmann        : Meta GGA functionals, TD-DFT gradient, OOMP2, MP2 Hessian
   Taras Petrenko         : DFT Hessian,TD-DFT gradient, ASA and ECA modules, normal mode analysis, Resonance Raman, ABS, FL, XAS/XES, NRVS
   Christoph Reimann      : Effective Core Potentials
   Michael Roemelt        : Restricted open shell CIS
   Christoph Riplinger    : Improved optimizer, TS searches, QM/MM, DLPNO-CCSD
   Barbara Sandhoefer     : DKH picture change effects
   Igor Schapiro          : Molecular dynamics
   Kantharuban Sivalingam : CASSCF convergence, NEVPT2
   Boris Wezisla          : Elementary symmetry handling
   Frank Wennmohs         : Technical directorship


 We gratefully acknowledge several colleagues who have allowed us to
 interface, adapt or use parts of their codes:
   Stefan Grimme, W. Hujo, H. Kruse, T. Risthaus : VdW corrections, initial TS optimization,
                                                   DFT functionals, gCP
   Ed Valeev                                     : LibInt (2-el integral package), F12 methods
   Garnet Chan, S. Sharma, R. Olivares           : DMRG
   Ulf Ekstrom                                   : XCFun DFT Library
   Mihaly Kallay                                 : mrcc  (arbitrary order and MRCC methods)
   Andreas Klamt, Michael Diedenhofen            : otool_cosmo (COSMO solvation model)
   Frank Weinhold                                : gennbo (NPA and NBO analysis)
   Christopher J. Cramer and Donald G. Truhlar   : smd solvation model


 Your calculation uses the libint2 library for the computation of 2-el integrals
 For citations please refer to: http://libint.valeyev.net

 This ORCA versions uses:
   CBLAS   interface :  Fast vector & matrix operations
   LAPACKE interface :  Fast linear algebra routines
   SCALAPACK package :  Parallel linear algebra routines


leaving
================================================================================
                                        WARNINGS
                       Please study these warnings very carefully!
================================================================================
Now building the actual basis set

WARNING: Direct SCF is incompatible with Method<>HF and Method<>DFT
  ===> : conventional SCF is chosen

WARNING: The NDO methods need Guess=HUECKEL or Guess=HCORE or Guess=MOREAD
  ===> : Guess is set to Hueckel

WARNING: The NDO methods need %rel::SOCType==1
  ===> : %rel::SOCType is set to 1

WARNING: The NDO methods cannot have frozencore=1
  ===> : %method FrozenCore=0 end


INFO   : the flag for use of LIBINT has been found!

================================================================================
                                       INPUT FILE
================================================================================
NAME = /Users/mattyjones/GoogleDrive/Boise/Code/MorphCT/tests/output_EZ/donor_polymer/chromophores/input_orca/pair/00003-00005.inp
|  1> # ================================================================
|  2> # Orca input file made by Matty Jones
|  3> # ================================================================
|  4> ! ZINDO/S 
|  5> ! NOPOP
|  6> ! NOMOPRINT
|  7> * xyz 0   1
|  8>  C  -5.39975  1.51158  -5.05734
|  9>  C  -4.49707  2.26402  -4.30441
| 10>  C  -3.63682  1.48209  -3.47206
| 11>  C  -3.86135  0.10526  -3.56822
| 12>  S  -5.09508  -0.06971  -4.66264
| 13>  H  -3.90040  3.23098  -4.62140
| 14>  C  -2.42925  1.85603  -2.43733
| 15>  C  -0.99390  2.69633  -2.82781
| 16>  C  -0.74057  4.34294  -2.62032
| 17>  H  -0.19791  4.74767  -3.55763
| 18>  H  -1.76294  4.86755  -2.51814
| 19>  H  -0.16019  2.15452  -2.23280
| 20>  H  -0.82082  2.48595  -3.95355
| 21>  H  -2.89793  2.51930  -1.59794
| 22>  H  -2.04306  0.89001  -1.92026
| 23>  C  0.17623  4.62430  -1.29576
| 24>  C  -0.65543  4.45894  0.16149
| 25>  C  -1.54858  5.81950  0.57057
| 26>  H  -1.16262  6.73595  -0.02138
| 27>  H  -1.45001  6.02065  1.70557
| 28>  H  -2.66027  5.63003  0.30547
| 29>  H  -1.35970  3.55109  0.08751
| 30>  H  0.11992  4.27331  0.99516
| 31>  H  1.06729  3.88593  -1.27487
| 32>  H  0.59995  5.69994  -1.34425
| 33>  C  -2.49264  -4.98507  -0.18239
| 34>  C  -1.27008  -4.33151  -0.02086
| 35>  C  -0.39067  -4.96088  0.91445
| 36>  C  -0.92152  -6.11725  1.49439
| 37>  S  -2.42978  -6.29759  0.82878
| 38>  H  -1.08353  -3.17375  0.08422
| 39>  C  1.08539  -4.44268  1.32320
| 40>  C  1.29080  -2.85159  1.88352
| 41>  C  2.90342  -2.38832  2.19404
| 42>  H  2.90072  -1.23507  2.02446
| 43>  H  3.51788  -2.85450  1.33455
| 44>  H  0.86297  -2.13616  1.09261
| 45>  H  0.70456  -2.74997  2.86843
| 46>  H  1.52077  -5.12444  2.16529
| 47>  H  1.78712  -4.54389  0.39392
| 48>  C  3.66562  -2.63105  3.61739
| 49>  C  5.31935  -2.22036  3.58617
| 50>  C  5.73277  -0.62977  3.94948
| 51>  H  6.88711  -0.53926  3.98673
| 52>  H  5.28736  -0.33666  4.97526
| 53>  H  5.31808  0.06908  3.12595
| 54>  H  5.85802  -2.90743  4.33918
| 55>  H  5.72465  -2.41897  2.52658
| 56>  H  3.59093  -3.74519  3.91227
| 57>  H  3.16766  -1.99231  4.44067
| 58>  H  -6.12680  1.87451  -5.73799
| 59>  H  -3.35007  -0.66528  -3.05010
| 60>  H  -3.29266  -4.70202  -0.81757
| 61>  H  -0.45713  -6.74677  2.20969
| 62> *
| 63> 
| 64>                          ****END OF INPUT****
================================================================================

                       ****************************
                       * Single Point Calculation *
                       ****************************

---------------------------------
CARTESIAN COORDINATES (ANGSTROEM)
---------------------------------
  C     -5.399750    1.511580   -5.057340
  C     -4.497070    2.264020   -4.304410
  C     -3.636820    1.482090   -3.472060
  C     -3.861350    0.105260   -3.568220
  S     -5.095080   -0.069710   -4.662640
  H     -3.900400    3.230980   -4.621400
  C     -2.429250    1.856030   -2.437330
  C     -0.993900    2.696330   -2.827810
  C     -0.740570    4.342940   -2.620320
  H     -0.197910    4.747670   -3.557630
  H     -1.762940    4.867550   -2.518140
  H     -0.160190    2.154520   -2.232800
  H     -0.820820    2.485950   -3.953550
  H     -2.897930    2.519300   -1.597940
  H     -2.043060    0.890010   -1.920260
  C      0.176230    4.624300   -1.295760
  C     -0.655430    4.458940    0.161490
  C     -1.548580    5.819500    0.570570
  H     -1.162620    6.735950   -0.021380
  H     -1.450010    6.020650    1.705570
  H     -2.660270    5.630030    0.305470
  H     -1.359700    3.551090    0.087510
  H      0.119920    4.273310    0.995160
  H      1.067290    3.885930   -1.274870
  H      0.599950    5.699940   -1.344250
  C     -2.492640   -4.985070   -0.182390
  C     -1.270080   -4.331510   -0.020860
  C     -0.390670   -4.960880    0.914450
  C     -0.921520   -6.117250    1.494390
  S     -2.429780   -6.297590    0.828780
  H     -1.083530   -3.173750    0.084220
  C      1.085390   -4.442680    1.323200
  C      1.290800   -2.851590    1.883520
  C      2.903420   -2.388320    2.194040
  H      2.900720   -1.235070    2.024460
  H      3.517880   -2.854500    1.334550
  H      0.862970   -2.136160    1.092610
  H      0.704560   -2.749970    2.868430
  H      1.520770   -5.124440    2.165290
  H      1.787120   -4.543890    0.393920
  C      3.665620   -2.631050    3.617390
  C      5.319350   -2.220360    3.586170
  C      5.732770   -0.629770    3.949480
  H      6.887110   -0.539260    3.986730
  H      5.287360   -0.336660    4.975260
  H      5.318080    0.069080    3.125950
  H      5.858020   -2.907430    4.339180
  H      5.724650   -2.418970    2.526580
  H      3.590930   -3.745190    3.912270
  H      3.167660   -1.992310    4.440670
  H     -6.126800    1.874510   -5.737990
  H     -3.350070   -0.665280   -3.050100
  H     -3.292660   -4.702020   -0.817570
  H     -0.457130   -6.746770    2.209690

----------------------------
CARTESIAN COORDINATES (A.U.)
----------------------------
  NO LB      ZA    FRAG    MASS        X           Y           Z
   0 C     4.0000    0    12.011        -10.204048691641280          2.856472229512685         -9.556987566125303
   1 C     4.0000    0    12.011         -8.498230705073244          4.278377761720392         -8.134156068111974
   2 C     4.0000    0    12.011         -6.872593798367487          2.800744205823348         -6.561242520542621
   3 C     4.0000    0    12.011         -7.296894007216824          0.198912572856551         -6.742958585580489
   4 S     6.0000    0    32.060         -9.628305830419491         -0.131732808795650         -8.811112661066584
   5 H     1.0000    0     1.008         -7.370687812746450          6.105667344176886         -8.733180355303674
   6 C     4.0000    0    12.011         -4.590617210828201          3.507388396341861         -4.605886197990285
   7 C     4.0000    0    12.011         -1.878198804504332          5.095325266675888         -5.343786458763854
   8 C     4.0000    0    12.011         -1.399474482998061          8.206967216051959         -4.951687183236534
   9 H     1.0000    0     1.008         -0.373995699164355          8.971796074233909         -6.722946385822262
  10 H     1.0000    0     1.008         -3.331473790535131          9.198336443168388         -4.758594966872461
  11 H     1.0000    0     1.008         -0.302715229392845          4.071452750056015         -4.219380511819371
  12 H     1.0000    0     1.008         -1.551125005245242          4.697764682621536         -7.471126756764364
  13 H     1.0000    0     1.008         -5.476294055274413          4.760787049187809         -3.019668978438125
  14 H     1.0000    0     1.008         -3.860823875169153          1.681875156451253         -3.628765505923623
  15 C     4.0000    0    12.011          0.333026436580942          8.738660561092043         -2.448631535289801
  16 C     4.0000    0    12.011         -1.238583199956006          8.426175447586827          0.305171873366943
  17 C     4.0000    0    12.011         -2.926392096467772         10.997261236354724          1.078221040231448
  18 H     1.0000    0     1.008         -2.197033397819526         12.729100751786856         -0.040402344743236
  19 H     1.0000    0     1.008         -2.740121791447154         11.377379648192983          3.223060202232069
  20 H     1.0000    0     1.008         -5.027181742286689         10.639214825760664          0.577254642128925
  21 H     1.0000    0     1.008         -2.569460624292726          6.710587576906417          0.165369933979449
  22 H     1.0000    0     1.008          0.226615957979836          8.075385585347025          1.880579859433073
  23 H     1.0000    0     1.008          2.016885805472813          7.343343475588609         -2.409155156352186
  24 H     1.0000    0     1.008          1.133741194046055         10.771325579783099         -2.540264355523643
  25 C     4.0000    0    12.011         -4.710406950457469         -9.420417058426814         -0.344667149565897
  26 C     4.0000    0    12.011         -2.400103368170703         -8.185367646341239         -0.039419687153597
  27 C     4.0000    0    12.011         -0.738259308739015         -9.374704583247260          1.728060063164289
  28 C     4.0000    0    12.011         -1.741420426931112        -11.559927192729777          2.823987837270579
  29 S     6.0000    0    32.060         -4.591618765679179        -11.900720403721134          1.566167225271255
  30 H     1.0000    0     1.008         -2.047574957887694         -5.997518317532573          0.159152734998848
  31 C     4.0000    0    12.011          2.051089848496788         -8.395448500649266          2.500485620404600
  32 C     4.0000    0    12.011          2.439258493665552         -5.388724146228502          3.559336967763356
  33 C     4.0000    0    12.011          5.486668651749641         -4.513270720166804          4.146134726868583
  34 H     1.0000    0     1.008          5.481566391188053         -2.333944056222120          3.825674969078217
  35 H     1.0000    0     1.008          6.647829771998893         -5.394223249278213          2.521934012024606
  36 H     1.0000    0     1.008          1.630776961790023         -4.036757378237221          2.064733671183699
  37 H     1.0000    0     1.008          1.331425444915557         -5.196690176499424          5.420547134323736
  38 H     1.0000    0     1.008          2.873838812683422         -9.683788189711418          4.091805100518347
  39 H     1.0000    0     1.008          3.377167368453347         -8.586707682663437          0.744400918674259
  40 C     4.0000    0    12.011          6.927017911024419         -4.971963944653510          6.835876419585396
  41 C     4.0000    0    12.011         10.052114710474010         -4.195872318713390          6.776879169684375
  42 C     4.0000    0    12.011         10.833365288759735         -1.190092827359587          7.463435571399304
  43 H     1.0000    0     1.008         13.014751754190391         -1.019053714978374          7.533827869887872
  44 H     1.0000    0     1.008          9.991662371449868         -0.636195200245929          9.401878845053046
  45 H     1.0000    0     1.008         10.049714758283930          0.130542281331280          5.907189408331137
  46 H     1.0000    0     1.008         11.070053487033370         -5.494246453546665          8.199861845788416
  47 H     1.0000    0     1.008         10.818020712552293         -4.571190826171490          4.774544255442756
  48 H     1.0000    0     1.008          6.785874266081841         -7.077383419500532          7.393118861956095
  49 H     1.0000    0     1.008          5.986009885376992         -3.764920273872649          8.391650151120084
  50 H     1.0000    0     1.008        -11.577974077308726          3.542310535296725        -10.843229659178803
  51 H     1.0000    0     1.008         -6.330714829465568         -1.257197002375130         -5.763853681073210
  52 H     1.0000    0     1.008         -6.222225652117149         -8.885530076220403         -1.544983395309998
  53 H     1.0000    0     1.008         -0.863850507599422        -12.749547588555883          4.175708940864451

--------------------------------
INTERNAL COORDINATES (ANGSTROEM)
--------------------------------
 C      0   0   0   0.000000     0.000     0.000
 C      1   0   0   1.395672     0.000     0.000
 C      2   1   0   1.429773   114.102     0.000
 C      3   2   1   1.398328   113.693     0.000
 S      1   2   3   1.658038   105.480     0.000
 H      2   1   3   1.179623   128.617   141.126
 C      3   2   1   1.633623   133.496   179.247
 C      7   3   2   1.708452   126.076   300.987
 C      8   7   3   1.678855   125.516    96.305
 H      9   8   7   1.156216   108.298   222.542
 H      9   8   7   1.153645   108.858   341.138
 H      8   7   3   1.158735   104.900   219.963
 H      8   7   3   1.158234   104.972   333.518
 H      7   3   2   1.167974   106.772    61.422
 H      7   3   2   1.161765   109.712   176.572
 C      9   8   7   1.635281   110.699   102.529
 C     16   9   8   1.685995   113.996   284.055
 C     17  16   9   1.678150   113.186   278.322
 H     18  17  16   1.157260   109.868   341.138
 H     18  17  16   1.156893   109.559   220.660
 H     18  17  16   1.158461   108.805   100.910
 H     17  16   9   1.151373   108.876    39.999
 H     17  16   9   1.153530   107.992   158.587
 H     16   9   8   1.157417   109.662    44.693
 H     16   9   8   1.157105   109.348   163.148
 C     15   7   3   6.143198   153.741   342.084
 C     26  15   7   1.395667    61.366   170.562
 C     27  26  15   1.429781   114.102   160.819
 C     28  27  26   1.398329   113.692     0.000
 S     26  15   7   1.658049   157.942   228.036
 H     27  26  15   1.177392   127.560    24.197
 C     28  27  26   1.616899   125.859   180.385
 C     32  28  27   1.699329   119.589    54.291
 C     33  32  28   1.706337   115.369   183.558
 H     34  33  32   1.165654   103.883   152.110
 H     34  33  32   1.154819   104.941    39.923
 H     33  32  28   1.149094   108.119   304.483
 H     33  32  28   1.150674   107.658    63.464
 H     32  28  27   1.167676   109.607   175.914
 H     32  28  27   1.168858   108.622   292.973
 C     34  33  32   1.632725   124.019   272.681
 C     41  34  33   1.704249   113.653   173.743
 C     42  41  34   1.683118   117.524    88.374
 H     43  42  41   1.158482   108.997   174.529
 H     43  42  41   1.156083   109.663    54.537
 H     43  42  41   1.156962   109.217   294.053
 H     42  41  34   1.152933   107.325   210.089
 H     42  41  34   1.151714   108.468   328.300
 H     41  34  33   1.154920   109.622    53.495
 H     41  34  33   1.154878   109.752   293.951
 H      1   2   3   1.060002   127.260   180.000
 H      4   3   2   1.059994   127.206   180.000
 H     26  15   7   1.060001    68.306     6.907
 H     29  28  27   1.060004   127.205   180.000

---------------------------
INTERNAL COORDINATES (A.U.)
---------------------------
 C      0   0   0   0.000000     0.000     0.000
 C      1   0   0   2.637438     0.000     0.000
 C      2   1   0   2.701880   114.102     0.000
 C      3   2   1   2.642457   113.693     0.000
 S      1   2   3   3.133238   105.480     0.000
 H      2   1   3   2.229164   128.617   141.126
 C      3   2   1   3.087099   133.496   179.247
 C      7   3   2   3.228506   126.076   300.987
 C      8   7   3   3.172575   125.516    96.305
 H      9   8   7   2.184932   108.298   222.542
 H      9   8   7   2.180073   108.858   341.138
 H      8   7   3   2.189692   104.900   219.963
 H      8   7   3   2.188746   104.972   333.518
 H      7   3   2   2.207151   106.772    61.422
 H      7   3   2   2.195418   109.712   176.572
 C      9   8   7   3.090234   110.699   102.529
 C     16   9   8   3.186069   113.996   284.055
 C     17  16   9   3.171244   113.186   278.322
 H     18  17  16   2.186904   109.868   341.138
 H     18  17  16   2.186212   109.559   220.660
 H     18  17  16   2.189174   108.805   100.910
 H     17  16   9   2.175781   108.876    39.999
 H     17  16   9   2.179856   107.992   158.587
 H     16   9   8   2.187202   109.662    44.693
 H     16   9   8   2.186611   109.348   163.148
 C     15   7   3  11.608961   153.741   342.084
 C     26  15   7   2.637428    61.366   170.562
 C     27  26  15   2.701894   114.102   160.819
 C     28  27  26   2.642459   113.692     0.000
 S     26  15   7   3.133258   157.942   228.036
 H     27  26  15   2.224948   127.560    24.197
 C     28  27  26   3.055495   125.859   180.385
 C     32  28  27   3.211266   119.589    54.291
 C     33  32  28   3.224509   115.369   183.558
 H     34  33  32   2.202768   103.883   152.110
 H     34  33  32   2.182292   104.941    39.923
 H     33  32  28   2.171473   108.119   304.483
 H     33  32  28   2.174460   107.658    63.464
 H     32  28  27   2.206588   109.607   175.914
 H     32  28  27   2.208822   108.622   292.973
 C     34  33  32   3.085404   124.019   272.681
 C     41  34  33   3.220563   113.653   173.743
 C     42  41  34   3.180632   117.524    88.374
 H     43  42  41   2.189214   108.997   174.529
 H     43  42  41   2.184680   109.663    54.537
 H     43  42  41   2.186341   109.217   294.053
 H     42  41  34   2.178728   107.325   210.089
 H     42  41  34   2.176424   108.468   328.300
 H     41  34  33   2.182483   109.622    53.495
 H     41  34  33   2.182403   109.752   293.951
 H      1   2   3   2.003114   127.260   180.000
 H      4   3   2   2.003099   127.206   180.000
 H     26  15   7   2.003112    68.306     6.907
 H     29  28  27   2.003116   127.205   180.000

----------------------------
SLATER BASIS SET DIM= 120
----------------------------
  0 C     2 shells
 l=0 nsto= 1
    2       1.625000000000        1.000000000000
 l=1 nsto= 1
    2       1.625000000000        1.000000000000
  1 C     2 shells
 l=0 nsto= 1
    2       1.625000000000        1.000000000000
 l=1 nsto= 1
    2       1.625000000000        1.000000000000
  2 C     2 shells
 l=0 nsto= 1
    2       1.625000000000        1.000000000000
 l=1 nsto= 1
    2       1.625000000000        1.000000000000
  3 C     2 shells
 l=0 nsto= 1
    2       1.625000000000        1.000000000000
 l=1 nsto= 1
    2       1.625000000000        1.000000000000
  4 S     2 shells
 l=0 nsto= 1
    3       1.925000000000        1.000000000000
 l=1 nsto= 1
    3       1.925000000000        1.000000000000
  5 H     1 shells
 l=0 nsto= 1
    1       1.200000000000        1.000000000000
  6 C     2 shells
 l=0 nsto= 1
    2       1.625000000000        1.000000000000
 l=1 nsto= 1
    2       1.625000000000        1.000000000000
  7 C     2 shells
 l=0 nsto= 1
    2       1.625000000000        1.000000000000
 l=1 nsto= 1
    2       1.625000000000        1.000000000000
  8 C     2 shells
 l=0 nsto= 1
    2       1.625000000000        1.000000000000
 l=1 nsto= 1
    2       1.625000000000        1.000000000000
  9 H     1 shells
 l=0 nsto= 1
    1       1.200000000000        1.000000000000
 10 H     1 shells
 l=0 nsto= 1
    1       1.200000000000        1.000000000000
 11 H     1 shells
 l=0 nsto= 1
    1       1.200000000000        1.000000000000
 12 H     1 shells
 l=0 nsto= 1
    1       1.200000000000        1.000000000000
 13 H     1 shells
 l=0 nsto= 1
    1       1.200000000000        1.000000000000
 14 H     1 shells
 l=0 nsto= 1
    1       1.200000000000        1.000000000000
 15 C     2 shells
 l=0 nsto= 1
    2       1.625000000000        1.000000000000
 l=1 nsto= 1
    2       1.625000000000        1.000000000000
 16 C     2 shells
 l=0 nsto= 1
    2       1.625000000000        1.000000000000
 l=1 nsto= 1
    2       1.625000000000        1.000000000000
 17 C     2 shells
 l=0 nsto= 1
    2       1.625000000000        1.000000000000
 l=1 nsto= 1
    2       1.625000000000        1.000000000000
 18 H     1 shells
 l=0 nsto= 1
    1       1.200000000000        1.000000000000
 19 H     1 shells
 l=0 nsto= 1
    1       1.200000000000        1.000000000000
 20 H     1 shells
 l=0 nsto= 1
    1       1.200000000000        1.000000000000
 21 H     1 shells
 l=0 nsto= 1
    1       1.200000000000        1.000000000000
 22 H     1 shells
 l=0 nsto= 1
    1       1.200000000000        1.000000000000
 23 H     1 shells
 l=0 nsto= 1
    1       1.200000000000        1.000000000000
 24 H     1 shells
 l=0 nsto= 1
    1       1.200000000000        1.000000000000
 25 C     2 shells
 l=0 nsto= 1
    2       1.625000000000        1.000000000000
 l=1 nsto= 1
    2       1.625000000000        1.000000000000
 26 C     2 shells
 l=0 nsto= 1
    2       1.625000000000        1.000000000000
 l=1 nsto= 1
    2       1.625000000000        1.000000000000
 27 C     2 shells
 l=0 nsto= 1
    2       1.625000000000        1.000000000000
 l=1 nsto= 1
    2       1.625000000000        1.000000000000
 28 C     2 shells
 l=0 nsto= 1
    2       1.625000000000        1.000000000000
 l=1 nsto= 1
    2       1.625000000000        1.000000000000
 29 S     2 shells
 l=0 nsto= 1
    3       1.925000000000        1.000000000000
 l=1 nsto= 1
    3       1.925000000000        1.000000000000
 30 H     1 shells
 l=0 nsto= 1
    1       1.200000000000        1.000000000000
 31 C     2 shells
 l=0 nsto= 1
    2       1.625000000000        1.000000000000
 l=1 nsto= 1
    2       1.625000000000        1.000000000000
 32 C     2 shells
 l=0 nsto= 1
    2       1.625000000000        1.000000000000
 l=1 nsto= 1
    2       1.625000000000        1.000000000000
 33 C     2 shells
 l=0 nsto= 1
    2       1.625000000000        1.000000000000
 l=1 nsto= 1
    2       1.625000000000        1.000000000000
 34 H     1 shells
 l=0 nsto= 1
    1       1.200000000000        1.000000000000
 35 H     1 shells
 l=0 nsto= 1
    1       1.200000000000        1.000000000000
 36 H     1 shells
 l=0 nsto= 1
    1       1.200000000000        1.000000000000
 37 H     1 shells
 l=0 nsto= 1
    1       1.200000000000        1.000000000000
 38 H     1 shells
 l=0 nsto= 1
    1       1.200000000000        1.000000000000
 39 H     1 shells
 l=0 nsto= 1
    1       1.200000000000        1.000000000000
 40 C     2 shells
 l=0 nsto= 1
    2       1.625000000000        1.000000000000
 l=1 nsto= 1
    2       1.625000000000        1.000000000000
 41 C     2 shells
 l=0 nsto= 1
    2       1.625000000000        1.000000000000
 l=1 nsto= 1
    2       1.625000000000        1.000000000000
 42 C     2 shells
 l=0 nsto= 1
    2       1.625000000000        1.000000000000
 l=1 nsto= 1
    2       1.625000000000        1.000000000000
 43 H     1 shells
 l=0 nsto= 1
    1       1.200000000000        1.000000000000
 44 H     1 shells
 l=0 nsto= 1
    1       1.200000000000        1.000000000000
 45 H     1 shells
 l=0 nsto= 1
    1       1.200000000000        1.000000000000
 46 H     1 shells
 l=0 nsto= 1
    1       1.200000000000        1.000000000000
 47 H     1 shells
 l=0 nsto= 1
    1       1.200000000000        1.000000000000
 48 H     1 shells
 l=0 nsto= 1
    1       1.200000000000        1.000000000000
 49 H     1 shells
 l=0 nsto= 1
    1       1.200000000000        1.000000000000
 50 H     1 shells
 l=0 nsto= 1
    1       1.200000000000        1.000000000000
 51 H     1 shells
 l=0 nsto= 1
    1       1.200000000000        1.000000000000
 52 H     1 shells
 l=0 nsto= 1
    1       1.200000000000        1.000000000000
 53 H     1 shells
 l=0 nsto= 1
    1       1.200000000000        1.000000000000
------------------------------------------------------------------------------
                           ORCA NDO INTEGRAL CALCULATION
------------------------------------------------------------------------------

--------------
NDO PARAMETERS
--------------

Gamma integral treatment              ... Mataga-Nishimoto
Nuclear repulsuion treatment          ... Direct (ZA*ZB/RAB)
Interaction factors:
s-s (sigma) =    1.0000
s-p (sigma) =    1.0000
s-d (sigma) =    1.0000
p-p (sigma) =    1.2670  p-p(pi) =    0.5850
p-d (sigma) =    1.0000  p-d(pi) =    1.0000
d-d (sigma) =    1.0000  d-d(pi) =    1.0000 d-d (delta) =    1.0000

fGamma parameter for Mataga-Nishimoto gamma integrals:    1.2000

--------------------------
Parameters for Element H :
--------------------------
 One-electron parameters (in eV)
  U(s)  =   -13.060000 Beta(s) =    12.000000 Neff(s) =     1.000000
 One-center electron repulsion parameters (in eV)
  G(s,s)=    12.850000
--------------------------
Parameters for Element C :
--------------------------
 One-electron parameters (in eV)
  U(s)  =   -50.870766 Beta(s) =    17.000000 Neff(s) =     2.000000
  U(p)  =   -41.599980 Beta(p) =    17.000000 Neff(p) =     2.000000 
 One-center electron repulsion parameters (in eV)
  G(s,s)=    11.110000
  G(s,p)=    11.110000 G(p,p)  =    11.110000
 Slater-Condon parameters (in eV)
 F2(p,p)=     4.5098 G1(s,p)=    6.8977
--------------------------
Parameters for Element S :
--------------------------
 One-electron parameters (in eV)
  U(s)  =   -69.509597 Beta(s) =    15.000000 Neff(s) =     2.000000
  U(p)  =   -60.725746 Beta(p) =    15.000000 Neff(p) =     4.000000 
 One-center electron repulsion parameters (in eV)
  G(s,s)=    10.090000
  G(s,p)=    10.090000 G(p,p)  =    10.090000
 Slater-Condon parameters (in eV)
 F2(p,p)=     4.5377 G1(s,p)=    3.0756

 Number of atoms                    ....   54
 Number of basis functions          ....  120

 Overlap integrals                  .... done
 One electron matrix                .... done
 Nuclear repulsion                  .... done
 Integral list                      .... done
 Electron-electron repulsion        .... done
-------------------------------------------------------------------------------
                                 ORCA SCF
-------------------------------------------------------------------------------

------------
SCF SETTINGS
------------
Hamiltonian:
 ZDO-Hamiltonian        Method          .... INDO


General Settings:
 Integral files         IntName         .... /Users/mattyjones/GoogleDrive/Boise/Code/MorphCT/tests/output_EZ/donor_polymer/chromophores/input_orca/pair/00003-00005
 Hartree-Fock type      HFTyp           .... RHF
 Total Charge           Charge          ....    0
 Multiplicity           Mult            ....    1
 Number of Electrons    NEL             ....  124
 Basis Dimension        Dim             ....  120
 Nuclear Repulsion      ENuc            ....    798.2949078220 Eh

Convergence Acceleration:
 DIIS                   CNVDIIS         .... on
   Start iteration      DIISMaxIt       ....    12
   Startup error        DIISStart       ....  0.200000
   # of expansion vecs  DIISMaxEq       ....     5
   Bias factor          DIISBfac        ....   1.050
   Max. coefficient     DIISMaxC        ....  10.000
 Newton-Raphson         CNVNR           .... off
 SOSCF                  CNVSOSCF        .... on
   Start iteration      SOSCFMaxIt      ....   150
   Startup grad/error   SOSCFStart      ....  0.003300
 Level Shifting         CNVShift        .... on
   Level shift para.    LevelShift      ....    0.2500
   Turn off err/grad.   ShiftErr        ....    0.0010
 Zerner damping         CNVZerner       .... off
 Static damping         CNVDamp         .... on
   Fraction old density DampFac         ....    0.7000
   Max. Damping (<1)    DampMax         ....    0.9800
   Min. Damping (>=0)   DampMin         ....    0.0000
   Turn off err/grad.   DampErr         ....    0.1000
 Fernandez-Rico         CNVRico         .... off

SCF Procedure:
 Maximum # iterations   MaxIter         ....   125
 SCF integral mode      SCFMode         .... Conventional
 Integral Buffer length BufferLength    .... 1048576
 Integral index format  IndFormat       ....     0
 Integral value format  ValFormat       ....     0
 Integral Storage       Thresh          ....  1.000e-08 Eh

Convergence Tolerance:
 Convergence Check Mode ConvCheckMode   .... Total+1el-Energy
 Energy Change          TolE            ....  1.000e-06 Eh
 1-El. energy change                    ....  1.000e-03 Eh
 Orbital Gradient       TolG            ....  5.000e-05
 Orbital Rotation angle TolX            ....  5.000e-05
 DIIS Error             TolErr          ....  1.000e-06


Diagonalization of the overlap matrix:
Smallest eigenvalue                        ... 1.689e-01
Time for diagonalization                   ...    0.003 sec
Threshold for overlap eigenvalues          ... 1.000e-08
Number of eigenvalues below threshold      ... 0
Time for construction of square roots      ...    0.001 sec
Total time needed                          ...    0.004 sec

-------------------------------
INITIAL GUESS: EXTENDED HUECKEL
-------------------------------
EHT matrix was read from disk
EHT matrix was diagonalized
Initial density was built
                      ------------------
                      INITIAL GUESS DONE
                      ------------------

 InCore treatment chosen:
   Memory dedicated               ...    1024 MB
   Memory needed                  ...      0 MB
   Number of tiny    integrals    ...       0
   Number of small   integrals    ...       0
   Number of regular integrals    ...    7392

--------------
SCF ITERATIONS
--------------
ITER       Energy         Delta-E        Max-DP      RMS-DP      [F,P]     Damp
  0    -21.0080925852   0.000000000000 0.04373613  0.00150464  0.1080360 0.7000
  1    -21.0527059662  -0.044613381023 0.04087732  0.00142004  0.0764005 0.7000
                               ***Turning on DIIS***
  2    -21.0855859872  -0.032880021047 0.10230330  0.00364036  0.0502436 0.0000
  3    -21.1648735148  -0.079287527552 0.01953039  0.00074788  0.0221853 0.0000
  4    -21.1554234311   0.009450083670 0.01170349  0.00052517  0.0073187 0.0000
  5    -21.1734062676  -0.017982836482 0.00767550  0.00035944  0.0040697 0.0000
  6    -21.1752335358  -0.001827268223 0.00575245  0.00025973  0.0021395 0.0000
                      *** Initiating the SOSCF procedure ***
                           *** Shutting down DIIS ***
                      *** Re-Reading the Fockian *** 
                      *** Removing any level shift *** 
ITER      Energy       Delta-E        Grad      Rot      Max-DP    RMS-DP
  7    -21.17224861   0.0029849280  0.003221  0.003221  0.003569  0.000152
  8    -21.16948815   0.0027604597  0.000933  0.002651  0.001751  0.000073
  9    -21.16950786  -0.0000197074  0.000405  0.002669  0.002180  0.000083
 10    -21.16951570  -0.0000078415  0.000045  0.000105  0.000180  0.000005
                 **** Energy Check signals convergence ****
              ***Rediagonalizing the Fockian in SOSCF/NRSCF***

               *****************************************************
               *                     SUCCESS                       *
               *           SCF CONVERGED AFTER  11 CYCLES          *
               *****************************************************


----------------
TOTAL SCF ENERGY
----------------

Total Energy       :          -21.16951578 Eh            -576.05181 eV

Components:
Nuclear Repulsion  :          798.29490782 Eh           21722.70880 eV
Electronic Energy  :         -819.46442360 Eh          -22298.76061 eV

One Electron Energy:        -1548.58669408 Eh          -42139.18626 eV
Two Electron Energy:          729.12227048 Eh           19840.42565 eV


---------------
SCF CONVERGENCE
---------------

  Last Energy change         ...   -8.3833e-08  Tolerance :   1.0000e-06
  Last MAX-Density change    ...    8.0204e-05  Tolerance :   1.0000e-05
  Last RMS-Density change    ...    2.0350e-06  Tolerance :   1.0000e-06
  Last Orbital Gradient      ...    2.0645e-05  Tolerance :   5.0000e-05
  Last Orbital Rotation      ...    5.1489e-05  Tolerance :   5.0000e-05

             **** THE GBW FILE WAS UPDATED (/Users/mattyjones/GoogleDrive/Boise/Code/MorphCT/tests/output_EZ/donor_polymer/chromophores/input_orca/pair/00003-00005.gbw) ****
             **** DENSITY FILE WAS UPDATED (/Users/mattyjones/GoogleDrive/Boise/Code/MorphCT/tests/output_EZ/donor_polymer/chromophores/input_orca/pair/00003-00005.scfp.tmp) ****
             **** ENERGY FILE WAS UPDATED (/Users/mattyjones/GoogleDrive/Boise/Code/MorphCT/tests/output_EZ/donor_polymer/chromophores/input_orca/pair/00003-00005.en.tmp) ****
----------------
ORBITAL ENERGIES
----------------

  NO   OCC          E(Eh)            E(eV) 
   0   2.0000      -1.560282       -42.4574 
   1   2.0000      -1.559077       -42.4246 
   2   2.0000      -1.413391       -38.4603 
   3   2.0000      -1.391616       -37.8678 
   4   2.0000      -1.293128       -35.1878 
   5   2.0000      -1.279741       -34.8235 
   6   2.0000      -1.191781       -32.4300 
   7   2.0000      -1.178848       -32.0781 
   8   2.0000      -1.109911       -30.2022 
   9   2.0000      -1.099190       -29.9105 
  10   2.0000      -1.041495       -28.3405 
  11   2.0000      -1.029815       -28.0227 
  12   2.0000      -0.984190       -26.7812 
  13   2.0000      -0.961083       -26.1524 
  14   2.0000      -0.912762       -24.8375 
  15   2.0000      -0.901903       -24.5420 
  16   2.0000      -0.860717       -23.4213 
  17   2.0000      -0.848190       -23.0804 
  18   2.0000      -0.823137       -22.3987 
  19   2.0000      -0.821932       -22.3659 
  20   2.0000      -0.775129       -21.0923 
  21   2.0000      -0.770211       -20.9585 
  22   2.0000      -0.734854       -19.9964 
  23   2.0000      -0.730285       -19.8721 
  24   2.0000      -0.698708       -19.0128 
  25   2.0000      -0.681503       -18.5446 
  26   2.0000      -0.680945       -18.5295 
  27   2.0000      -0.673840       -18.3361 
  28   2.0000      -0.649935       -17.6856 
  29   2.0000      -0.639241       -17.3946 
  30   2.0000      -0.617870       -16.8131 
  31   2.0000      -0.609289       -16.5796 
  32   2.0000      -0.587296       -15.9811 
  33   2.0000      -0.586677       -15.9643 
  34   2.0000      -0.583364       -15.8741 
  35   2.0000      -0.577668       -15.7192 
  36   2.0000      -0.570756       -15.5311 
  37   2.0000      -0.566765       -15.4225 
  38   2.0000      -0.559657       -15.2290 
  39   2.0000      -0.548455       -14.9242 
  40   2.0000      -0.533016       -14.5041 
  41   2.0000      -0.529574       -14.4104 
  42   2.0000      -0.522925       -14.2295 
  43   2.0000      -0.521137       -14.1809 
  44   2.0000      -0.506293       -13.7769 
  45   2.0000      -0.500497       -13.6192 
  46   2.0000      -0.497352       -13.5336 
  47   2.0000      -0.495292       -13.4776 
  48   2.0000      -0.488371       -13.2892 
  49   2.0000      -0.485677       -13.2160 
  50   2.0000      -0.481504       -13.1024 
  51   2.0000      -0.474302       -12.9064 
  52   2.0000      -0.468494       -12.7484 
  53   2.0000      -0.463493       -12.6123 
  54   2.0000      -0.460015       -12.5177 
  55   2.0000      -0.454476       -12.3669 
  56   2.0000      -0.437099       -11.8941 
  57   2.0000      -0.435015       -11.8374 
  58   2.0000      -0.352581        -9.5942 
  59   2.0000      -0.349605        -9.5132 
  60   2.0000      -0.305196        -8.3048 
  61   2.0000      -0.304625        -8.2893 
  62   0.0000       0.002125         0.0578 
  63   0.0000       0.002205         0.0600 
  64   0.0000       0.055353         1.5062 
  65   0.0000       0.057817         1.5733 
  66   0.0000       0.073445         1.9985 
  67   0.0000       0.075297         2.0489 
  68   0.0000       0.089529         2.4362 
  69   0.0000       0.091556         2.4914 
  70   0.0000       0.102417         2.7869 
  71   0.0000       0.104554         2.8450 
  72   0.0000       0.108480         2.9519 
  73   0.0000       0.109255         2.9730 
  74   0.0000       0.125955         3.4274 
  75   0.0000       0.126438         3.4406 
  76   0.0000       0.141181         3.8417 
  77   0.0000       0.144174         3.9232 
  78   0.0000       0.155125         4.2212 
  79   0.0000       0.157827         4.2947 
  80   0.0000       0.164537         4.4773 
  81   0.0000       0.169993         4.6257 
  82   0.0000       0.174248         4.7415 
  83   0.0000       0.178571         4.8592 
  84   0.0000       0.198823         5.4103 
  85   0.0000       0.199390         5.4257 
  86   0.0000       0.231393         6.2965 
  87   0.0000       0.234266         6.3747 
  88   0.0000       0.234707         6.3867 
  89   0.0000       0.235047         6.3960 
  90   0.0000       0.236041         6.4230 
  91   0.0000       0.237333         6.4582 
  92   0.0000       0.239293         6.5115 
  93   0.0000       0.240017         6.5312 
  94   0.0000       0.241018         6.5584 
  95   0.0000       0.241193         6.5632 
  96   0.0000       0.242560         6.6004 
  97   0.0000       0.244004         6.6397 
  98   0.0000       0.244146         6.6436 
  99   0.0000       0.245765         6.6876 
 100   0.0000       0.246939         6.7195 
 101   0.0000       0.251321         6.8388 
 102   0.0000       0.257353         7.0029 
 103   0.0000       0.262288         7.1372 
 104   0.0000       0.264966         7.2101 
 105   0.0000       0.265172         7.2157 
 106   0.0000       0.275158         7.4874 
 107   0.0000       0.288163         7.8413 
 108   0.0000       0.304034         8.2732 
 109   0.0000       0.307097         8.3565 
 110   0.0000       0.308536         8.3957 
 111   0.0000       0.309112         8.4114 
 112   0.0000       0.334492         9.1020 
 113   0.0000       0.338492         9.2108 
 114   0.0000       0.353610         9.6222 
 115   0.0000       0.353797         9.6273 
 116   0.0000       0.400045        10.8858 
 117   0.0000       0.408871        11.1260 
 118   0.0000       0.433161        11.7869 
 119   0.0000       0.437651        11.9091 
-------
TIMINGS
-------

Total SCF time: 0 days 0 hours 0 min 0 sec 

Total time                  ....       0.149 sec
Sum of individual times     ....       0.126 sec  ( 84.3%)

Fock matrix formation       ....       0.056 sec  ( 37.7%)
Diagonalization             ....       0.021 sec  ( 14.3%)
Density matrix formation    ....       0.006 sec  (  3.8%)
Population analysis         ....       0.000 sec  (  0.0%)
Initial guess               ....       0.003 sec  (  1.8%)
Orbital Transformation      ....       0.000 sec  (  0.0%)
Orbital Orthonormalization  ....       0.000 sec  (  0.0%)
DIIS solution               ....       0.034 sec  ( 23.0%)
SOSCF solution              ....       0.006 sec  (  3.7%)

-------------------------   --------------------
FINAL SINGLE POINT ENERGY       -21.169515780974
-------------------------   --------------------


                            ***************************************
                            *     ORCA property calculations      *
                            ***************************************

                                    ---------------------
                                    Active property flags
                                    ---------------------
   (+) Dipole Moment


------------------------------------------------------------------------------
                       ORCA ELECTRIC PROPERTIES CALCULATION
------------------------------------------------------------------------------

Dipole Moment Calculation                       ... on
Quadrupole Moment Calculation                   ... off
Polarizability Calculation                      ... off
GBWName                                         ... /Users/mattyjones/GoogleDrive/Boise/Code/MorphCT/tests/output_EZ/donor_polymer/chromophores/input_orca/pair/00003-00005.gbw
Electron density file                           ... /Users/mattyjones/GoogleDrive/Boise/Code/MorphCT/tests/output_EZ/donor_polymer/chromophores/input_orca/pair/00003-00005.scfp.tmp

-------------
DIPOLE MOMENT
-------------
                                X             Y             Z
Electronic contribution:   -202.84637    -168.50075    -108.87980
Nuclear contribution   :    108.81513      90.21707      58.77994
                        -----------------------------------------
Total Dipole Moment    :    -94.03124     -78.28367     -50.09986
                        -----------------------------------------
Magnitude (a.u.)       :    132.21272
Magnitude (Debye)      :    336.05803


Timings for individual modules:

Sum of individual times         ...        0.245 sec (=   0.004 min)
STO integral calculation        ...        0.049 sec (=   0.001 min)  19.8 %
SCF iterations                  ...        0.197 sec (=   0.003 min)  80.2 %
                             ****ORCA TERMINATED NORMALLY****
TOTAL RUN TIME: 0 days 0 hours 0 minutes 0 seconds 554 msec

