
                                 *****************
                                 * O   R   C   A *
                                 *****************

           --- An Ab Initio, DFT and Semiempirical electronic structure package ---

                  #######################################################
                  #                        -***-                        #
                  #  Department of molecular theory and spectroscopy    #
                  #              Directorship: Frank Neese              #
                  # Max Planck Institute for Chemical Energy Conversion #
                  #                  D-45470 Muelheim/Ruhr              #
                  #                       Germany                       #
                  #                                                     #
                  #                  All rights reserved                #
                  #                        -***-                        #
                  #######################################################


                         Program Version 3.0.3 - RELEASE   -


 With contributions from (in alphabetic order):
   Ute Becker             : Parallelization
   Dmytro Bykov           : SCF Hessian
   Dmitry Ganyushin       : Spin-Orbit,Spin-Spin,Magnetic field MRCI
   Andreas Hansen         : Spin unrestricted coupled pair/coupled cluster methods
   Dimitrios Liakos       : Extrapolation schemes; parallel MDCI
   Robert Izsak           : Overlap fitted RIJCOSX, COSX-SCS-MP3
   Christian Kollmar      : KDIIS, OOCD, Brueckner-CCSD(T), CCSD density
   Simone Kossmann        : Meta GGA functionals, TD-DFT gradient, OOMP2, MP2 Hessian
   Taras Petrenko         : DFT Hessian,TD-DFT gradient, ASA and ECA modules, normal mode analysis, Resonance Raman, ABS, FL, XAS/XES, NRVS
   Christoph Reimann      : Effective Core Potentials
   Michael Roemelt        : Restricted open shell CIS
   Christoph Riplinger    : Improved optimizer, TS searches, QM/MM, DLPNO-CCSD
   Barbara Sandhoefer     : DKH picture change effects
   Igor Schapiro          : Molecular dynamics
   Kantharuban Sivalingam : CASSCF convergence, NEVPT2
   Boris Wezisla          : Elementary symmetry handling
   Frank Wennmohs         : Technical directorship


 We gratefully acknowledge several colleagues who have allowed us to
 interface, adapt or use parts of their codes:
   Stefan Grimme, W. Hujo, H. Kruse, T. Risthaus : VdW corrections, initial TS optimization,
                                                   DFT functionals, gCP
   Ed Valeev                                     : LibInt (2-el integral package), F12 methods
   Garnet Chan, S. Sharma, R. Olivares           : DMRG
   Ulf Ekstrom                                   : XCFun DFT Library
   Mihaly Kallay                                 : mrcc  (arbitrary order and MRCC methods)
   Andreas Klamt, Michael Diedenhofen            : otool_cosmo (COSMO solvation model)
   Frank Weinhold                                : gennbo (NPA and NBO analysis)
   Christopher J. Cramer and Donald G. Truhlar   : smd solvation model


 Your calculation uses the libint2 library for the computation of 2-el integrals
 For citations please refer to: http://libint.valeyev.net

 This ORCA versions uses:
   CBLAS   interface :  Fast vector & matrix operations
   LAPACKE interface :  Fast linear algebra routines
   SCALAPACK package :  Parallel linear algebra routines


leaving
================================================================================
                                        WARNINGS
                       Please study these warnings very carefully!
================================================================================
Now building the actual basis set

WARNING: Direct SCF is incompatible with Method<>HF and Method<>DFT
  ===> : conventional SCF is chosen

WARNING: The NDO methods need Guess=HUECKEL or Guess=HCORE or Guess=MOREAD
  ===> : Guess is set to Hueckel

WARNING: The NDO methods need %rel::SOCType==1
  ===> : %rel::SOCType is set to 1

WARNING: The NDO methods cannot have frozencore=1
  ===> : %method FrozenCore=0 end


INFO   : the flag for use of LIBINT has been found!

================================================================================
                                       INPUT FILE
================================================================================
NAME = /Users/mattyjones/GoogleDrive/Boise/Code/MorphCT/tests/output_EZ/donor_polymer/chromophores/input_orca/pair/00007-00022.inp
|  1> # ================================================================
|  2> # Orca input file made by Matty Jones
|  3> # ================================================================
|  4> ! ZINDO/S 
|  5> ! NOPOP
|  6> ! NOMOPRINT
|  7> * xyz 0   1
|  8>  C  18.28775  -3.67180  -0.38949
|  9>  C  19.48502  -3.30694  -1.00700
| 10>  C  20.65644  -3.74837  -0.31620
| 11>  C  20.38277  -4.46542  0.85267
| 12>  S  18.72910  -4.51482  0.96832
| 13>  H  19.74955  -3.32853  -2.16432
| 14>  C  22.11185  -3.37453  -0.92692
| 15>  C  22.48269  -1.76068  -1.43198
| 16>  C  22.12583  -1.14868  -2.99486
| 17>  H  22.56413  -1.89586  -3.75773
| 18>  H  20.97597  -1.13330  -3.09509
| 19>  H  21.93142  -1.07119  -0.69130
| 20>  H  23.62082  -1.63888  -1.29607
| 21>  H  22.30401  -4.03064  -1.86251
| 22>  H  22.93293  -3.62853  -0.13649
| 23>  C  22.71189  0.34782  -3.31057
| 24>  C  22.13966  1.21058  -4.66549
| 25>  C  22.88118  1.15105  -6.17943
| 26>  H  24.02875  1.11061  -6.04858
| 27>  H  22.59361  2.10483  -6.77283
| 28>  H  22.51345  0.21726  -6.75315
| 29>  H  21.03777  0.90946  -4.81298
| 30>  H  22.21031  2.31009  -4.34894
| 31>  H  22.51186  1.02036  -2.39040
| 32>  H  23.85839  0.26228  -3.45570
| 33>  C  -24.14825  -1.78550  0.76999
| 34>  C  -23.30261  -0.80515  1.29124
| 35>  C  -23.95648  0.13472  2.14758
| 36>  C  -25.32532  -0.10466  2.30331
| 37>  S  -25.65002  -1.44772  1.38618
| 38>  H  -22.18161  -0.75740  1.07714
| 39>  C  -23.16074  1.34103  2.84967
| 40>  C  -22.09713  2.21231  1.86655
| 41>  C  -21.41530  3.51880  2.69445
| 42>  H  -22.27559  4.03402  3.27562
| 43>  H  -21.03524  4.25746  1.88591
| 44>  H  -21.25266  1.51201  1.52132
| 45>  H  -22.67787  2.61072  0.95742
| 46>  H  -23.84975  2.15706  3.27511
| 47>  H  -22.52779  0.91283  3.73466
| 48>  C  -20.20260  3.20325  3.72972
| 49>  C  -18.65542  3.09131  3.06888
| 50>  C  -18.20190  1.50977  2.71590
| 51>  H  -17.16125  1.30365  3.18010
| 52>  H  -18.14940  1.37167  1.56838
| 53>  H  -18.97302  0.76923  3.15876
| 54>  H  -18.62632  3.70516  2.09404
| 55>  H  -17.90406  3.53074  3.82356
| 56>  H  -20.42400  2.21221  4.28514
| 57>  H  -20.16432  4.05425  4.51794
| 58>  H  17.30377  -3.45556  -0.71905
| 59>  H  21.08520  -4.88876  1.52421
| 60>  H  -23.88576  -2.57875  0.11772
| 61>  H  -26.01173  0.45511  2.88563
| 62> *
| 63> 
| 64>                          ****END OF INPUT****
================================================================================

                       ****************************
                       * Single Point Calculation *
                       ****************************

---------------------------------
CARTESIAN COORDINATES (ANGSTROEM)
---------------------------------
  C     18.287750   -3.671800   -0.389490
  C     19.485020   -3.306940   -1.007000
  C     20.656440   -3.748370   -0.316200
  C     20.382770   -4.465420    0.852670
  S     18.729100   -4.514820    0.968320
  H     19.749550   -3.328530   -2.164320
  C     22.111850   -3.374530   -0.926920
  C     22.482690   -1.760680   -1.431980
  C     22.125830   -1.148680   -2.994860
  H     22.564130   -1.895860   -3.757730
  H     20.975970   -1.133300   -3.095090
  H     21.931420   -1.071190   -0.691300
  H     23.620820   -1.638880   -1.296070
  H     22.304010   -4.030640   -1.862510
  H     22.932930   -3.628530   -0.136490
  C     22.711890    0.347820   -3.310570
  C     22.139660    1.210580   -4.665490
  C     22.881180    1.151050   -6.179430
  H     24.028750    1.110610   -6.048580
  H     22.593610    2.104830   -6.772830
  H     22.513450    0.217260   -6.753150
  H     21.037770    0.909460   -4.812980
  H     22.210310    2.310090   -4.348940
  H     22.511860    1.020360   -2.390400
  H     23.858390    0.262280   -3.455700
  C    -24.148250   -1.785500    0.769990
  C    -23.302610   -0.805150    1.291240
  C    -23.956480    0.134720    2.147580
  C    -25.325320   -0.104660    2.303310
  S    -25.650020   -1.447720    1.386180
  H    -22.181610   -0.757400    1.077140
  C    -23.160740    1.341030    2.849670
  C    -22.097130    2.212310    1.866550
  C    -21.415300    3.518800    2.694450
  H    -22.275590    4.034020    3.275620
  H    -21.035240    4.257460    1.885910
  H    -21.252660    1.512010    1.521320
  H    -22.677870    2.610720    0.957420
  H    -23.849750    2.157060    3.275110
  H    -22.527790    0.912830    3.734660
  C    -20.202600    3.203250    3.729720
  C    -18.655420    3.091310    3.068880
  C    -18.201900    1.509770    2.715900
  H    -17.161250    1.303650    3.180100
  H    -18.149400    1.371670    1.568380
  H    -18.973020    0.769230    3.158760
  H    -18.626320    3.705160    2.094040
  H    -17.904060    3.530740    3.823560
  H    -20.424000    2.212210    4.285140
  H    -20.164320    4.054250    4.517940
  H     17.303770   -3.455560   -0.719050
  H     21.085200   -4.888760    1.524210
  H    -23.885760   -2.578750    0.117720
  H    -26.011730    0.455110    2.885630

----------------------------
CARTESIAN COORDINATES (A.U.)
----------------------------
  NO LB      ZA    FRAG    MASS        X           Y           Z
   0 C     4.0000    0    12.011         34.558839105618368         -6.938696418532052         -0.736029431900988
   1 C     4.0000    0    12.011         36.821351513978264         -6.249210941309544         -1.902954216858700
   2 C     4.0000    0    12.011         39.035014501776303         -7.083392748606402         -0.597531403545900
   3 C     4.0000    0    12.011         38.517853150706074         -8.438420872934635          1.611312782610634
   4 S     6.0000    0    32.060         35.392869734824515         -8.531773343950347          1.829859609998626
   5 H     1.0000    0     1.008         37.321240768184452         -6.290010128540904         -4.089972066168444
   6 C     4.0000    0    12.011         41.785340814346632         -6.376937530701281         -1.751624948054286
   7 C     4.0000    0    12.011         42.486126853849989         -3.327203009472469         -2.706050029252554
   8 C     4.0000    0    12.011         41.811759185698847         -2.170690615512663         -5.659465209435400
   9 H     1.0000    0     1.008         42.640026150196533         -3.582656188255944         -7.101080585219905
  10 H     1.0000    0     1.008         39.638838693348156         -2.141626627572955         -5.848872459838327
  11 H     1.0000    0     1.008         41.444377528003216         -2.024255737395106         -1.306367676379761
  12 H     1.0000    0     1.008         44.636880858649775         -3.097034366360861         -2.449217350391317
  13 H     1.0000    0     1.008         42.148470588240940         -7.616805744428354         -3.519633821689671
  14 H     1.0000    0     1.008         43.336957148386688         -6.856927968717279         -0.257928720018912
  15 C     4.0000    0    12.011         42.919252083744738          0.657284543900490         -6.256070647175678
  16 C     4.0000    0    12.011         41.837894098130974          2.287664663202389         -8.816498380548261
  17 C     4.0000    0    12.011         43.239163820956264          2.175169266450057        -11.677430363737001
  18 H     1.0000    0     1.008         45.407756840460273          2.098748741594282        -11.430159699113405
  19 H     1.0000    0     1.008         42.695735276624532          3.977552258461468        -12.798793851605870
  20 H     1.0000    0     1.008         42.544254829729404          0.410561899855731        -12.761604041290299
  21 H     1.0000    0     1.008         39.755623768424485          1.718630329756022         -9.095214088040304
  22 H     1.0000    0     1.008         41.971403249492518          4.365437444710144         -8.218305572855488
  23 H     1.0000    0     1.008         42.541250165176464          1.928200958007888         -4.517201350525360
  24 H     1.0000    0     1.008         45.085823096285452          0.495637370404866         -6.530326600991669
  25 C     4.0000    0    12.011        -45.633579113463867         -3.374106012116395          1.455070225858024
  26 C     4.0000    0    12.011        -44.035551105574697         -1.521512996726696          2.440089973164477
  27 C     4.0000    0    12.011        -45.271186332761786          0.254583904761871          4.058338050686602
  28 C     4.0000    0    12.011        -47.857919053918557         -0.197778737176198          4.352625101522158
  29 S     6.0000    0    32.060        -48.471513129602783         -2.735794318600474          2.619500572318961
  30 H     1.0000    0     1.008        -41.917168109448973         -1.431278573831956          2.035499607891937
  31 C     4.0000    0    12.011        -43.767455658955292          2.534179437372416          5.385095872051373
  32 C     4.0000    0    12.011        -41.757524045655309          4.180660023335324          3.527268315270712
  33 C     4.0000    0    12.011        -40.469052075763777          6.649568320042101          5.091772581544116
  34 H     1.0000    0     1.008        -42.094764571514894          7.623193018761008          6.190024718795130
  35 H     1.0000    0     1.008        -39.750842761305670          8.045433426124372          3.563853413223428
  36 H     1.0000    0     1.008        -40.161707017342827          2.857284811750272          2.874878162057079
  37 H     1.0000    0     1.008        -42.854963600668732          4.933545812350890          1.809261595138885
  38 H     1.0000    0     1.008        -45.069495862488374          4.076252654436175          6.189060958466831
  39 H     1.0000    0     1.008        -42.571353502489835          1.724998706827336          7.057484603310342
  40 C     4.0000    0    12.011        -38.177381193157480          6.053265238483250          7.048149356208770
  41 C     4.0000    0    12.011        -35.253634713277194          5.841729295052104          5.799342737868251
  42 C     4.0000    0    12.011        -34.396606117021228          2.853051825210288          5.132307207116727
  43 H     1.0000    0     1.008        -32.430062615756079          2.463541474486440          6.009518078482972
  44 H     1.0000    0     1.008        -34.297395494990361          2.592080646115763          2.963808673919413
  45 H     1.0000    0     1.008        -35.853811733410588          1.453634033996244          5.969191322785093
  46 H     1.0000    0     1.008        -35.198643682780087          7.001737682359664          3.957162113476458
  47 H     1.0000    0     1.008        -33.833770085294127          6.672131650081121          7.225481256615941
  48 H     1.0000    0     1.008        -38.595766559207640          4.180471050721931          8.097741045511313
  49 H     1.0000    0     1.008        -38.105042476750974          7.661422178450234          8.537669289488180
  50 H     1.0000    0     1.008         32.699386384362541         -6.530062039332921         -1.358807576596076
  51 H     1.0000    0     1.008         39.845253478956373         -9.238417534468859          2.880339470584111
  52 H     1.0000    0     1.008        -45.137544900570880         -4.873131267849428          0.222458560485210
  53 H     1.0000    0     1.008        -49.155045969503441          0.860033260808901          5.453050423827182

--------------------------------
INTERNAL COORDINATES (ANGSTROEM)
--------------------------------
 C      0   0   0   0.000000     0.000     0.000
 C      1   0   0   1.395671     0.000     0.000
 C      2   1   0   1.429787   114.101     0.000
 C      3   2   1   1.398325   113.693     0.000
 S      1   2   3   1.658047   105.480     0.000
 H      2   1   3   1.187363   128.142   138.175
 C      3   2   1   1.622021   118.821   180.569
 C      7   3   2   1.731219   121.125    47.940
 C      8   7   3   1.715951   123.617   273.833
 H      9   8   7   1.154277   106.985   308.061
 H      9   8   7   1.154323   106.918    64.998
 H      8   7   3   1.152346   105.532    35.464
 H      8   7   3   1.152669   105.998   151.542
 H      7   3   2   1.158764   108.802   286.445
 H      7   3   2   1.167676   109.022   169.047
 C      9   8   7   1.637880   115.278   186.479
 C     16   9   8   1.705172   119.695   193.921
 C     17  16   9   1.686834   123.214   267.895
 H     18  17  16   1.155714   109.640   322.486
 H     18  17  16   1.159533   108.739   202.855
 H     18  17  16   1.156003   109.518    83.402
 H     17  16   9   1.151776   106.889    32.578
 H     17  16   9   1.146350   104.193   149.244
 H     16   9   8   1.157167   108.415   315.881
 H     16   9   8   1.158811   108.102    73.042
 C      1   2   3  42.493724   148.998   175.452
 C     26   1   2   1.395670    55.687   277.425
 C     27  26   1   1.429762   114.101   193.735
 C     28  27  26   1.398312   113.694     0.000
 S     26   1   2   1.658041   157.474   240.751
 H     27  26   1   1.142261   123.641    12.622
 C     28  27  26   1.606648   121.924   179.964
 C     32  28  27   1.690243   116.393    45.557
 C     33  32  28   1.690333   111.553   175.745
 H     34  33  32   1.159012   106.845   315.604
 H     34  33  32   1.159224   106.447   200.331
 H     33  32  28   1.150101   108.830   295.737
 H     33  32  28   1.150003   108.701    55.713
 H     32  28  27   1.149626   113.443   164.949
 H     32  28  27   1.169268   108.898   284.883
 C     34  33  32   1.625422   117.571    78.023
 C     41  34  33   1.686122   116.607    84.175
 C     42  41  34   1.682719   113.074   264.810
 H     43  42  41   1.157981   108.991   230.632
 H     43  42  41   1.156992   109.418   110.791
 H     43  42  41   1.157217   109.973   350.508
 H     42  41  34   1.152377   108.624    25.239
 H     42  41  34   1.152034   108.445   144.219
 H     41  34  33   1.157441   109.217   321.632
 H     41  34  33   1.160585   108.351   204.275
 H      1   2   3   1.059993   127.260   179.999
 H      4   3   2   1.059996   127.206   180.000
 H     26   1   2   1.060001    72.704    86.010
 H     29  28  27   1.059999   127.206   180.000

---------------------------
INTERNAL COORDINATES (A.U.)
---------------------------
 C      0   0   0   0.000000     0.000     0.000
 C      1   0   0   2.637436     0.000     0.000
 C      2   1   0   2.701905   114.101     0.000
 C      3   2   1   2.642451   113.693     0.000
 S      1   2   3   3.133255   105.480     0.000
 H      2   1   3   2.243792   128.142   138.175
 C      3   2   1   3.065176   118.821   180.569
 C      7   3   2   3.271530   121.125    47.940
 C      8   7   3   3.242677   123.617   273.833
 H      9   8   7   2.181267   106.985   308.061
 H      9   8   7   2.181354   106.918    64.998
 H      8   7   3   2.177619   105.532    35.464
 H      8   7   3   2.178229   105.998   151.542
 H      7   3   2   2.189747   108.802   286.445
 H      7   3   2   2.206588   109.022   169.047
 C      9   8   7   3.095145   115.278   186.479
 C     16   9   8   3.222307   119.695   193.921
 C     17  16   9   3.187655   123.214   267.895
 H     18  17  16   2.183982   109.640   322.486
 H     18  17  16   2.191199   108.739   202.855
 H     18  17  16   2.184530   109.518    83.402
 H     17  16   9   2.176541   106.889    32.578
 H     17  16   9   2.166287   104.193   149.244
 H     16   9   8   2.186728   108.415   315.881
 H     16   9   8   2.189835   108.102    73.042
 C      1   2   3  80.301502   148.998   175.452
 C     26   1   2   2.637434    55.687   277.425
 C     27  26   1   2.701859   114.101   193.735
 C     28  27  26   2.642427   113.694     0.000
 S     26   1   2   3.133243   157.474   240.751
 H     27  26   1   2.158560   123.641    12.622
 C     28  27  26   3.036124   121.924   179.964
 C     32  28  27   3.194096   116.393    45.557
 C     33  32  28   3.194267   111.553   175.745
 H     34  33  32   2.190215   106.845   315.604
 H     34  33  32   2.190617   106.447   200.331
 H     33  32  28   2.173377   108.830   295.737
 H     33  32  28   2.173191   108.701    55.713
 H     32  28  27   2.172477   113.443   164.949
 H     32  28  27   2.209597   108.898   284.883
 C     34  33  32   3.071603   117.571    78.023
 C     41  34  33   3.186308   116.607    84.175
 C     42  41  34   3.179879   113.074   264.810
 H     43  42  41   2.188267   108.991   230.632
 H     43  42  41   2.186398   109.418   110.791
 H     43  42  41   2.186823   109.973   350.508
 H     42  41  34   2.177676   108.624    25.239
 H     42  41  34   2.177029   108.445   144.219
 H     41  34  33   2.187246   109.217   321.632
 H     41  34  33   2.193187   108.351   204.275
 H      1   2   3   2.003097   127.260   179.999
 H      4   3   2   2.003101   127.206   180.000
 H     26   1   2   2.003112    72.704    86.010
 H     29  28  27   2.003108   127.206   180.000

----------------------------
SLATER BASIS SET DIM= 120
----------------------------
  0 C     2 shells
 l=0 nsto= 1
    2       1.625000000000        1.000000000000
 l=1 nsto= 1
    2       1.625000000000        1.000000000000
  1 C     2 shells
 l=0 nsto= 1
    2       1.625000000000        1.000000000000
 l=1 nsto= 1
    2       1.625000000000        1.000000000000
  2 C     2 shells
 l=0 nsto= 1
    2       1.625000000000        1.000000000000
 l=1 nsto= 1
    2       1.625000000000        1.000000000000
  3 C     2 shells
 l=0 nsto= 1
    2       1.625000000000        1.000000000000
 l=1 nsto= 1
    2       1.625000000000        1.000000000000
  4 S     2 shells
 l=0 nsto= 1
    3       1.925000000000        1.000000000000
 l=1 nsto= 1
    3       1.925000000000        1.000000000000
  5 H     1 shells
 l=0 nsto= 1
    1       1.200000000000        1.000000000000
  6 C     2 shells
 l=0 nsto= 1
    2       1.625000000000        1.000000000000
 l=1 nsto= 1
    2       1.625000000000        1.000000000000
  7 C     2 shells
 l=0 nsto= 1
    2       1.625000000000        1.000000000000
 l=1 nsto= 1
    2       1.625000000000        1.000000000000
  8 C     2 shells
 l=0 nsto= 1
    2       1.625000000000        1.000000000000
 l=1 nsto= 1
    2       1.625000000000        1.000000000000
  9 H     1 shells
 l=0 nsto= 1
    1       1.200000000000        1.000000000000
 10 H     1 shells
 l=0 nsto= 1
    1       1.200000000000        1.000000000000
 11 H     1 shells
 l=0 nsto= 1
    1       1.200000000000        1.000000000000
 12 H     1 shells
 l=0 nsto= 1
    1       1.200000000000        1.000000000000
 13 H     1 shells
 l=0 nsto= 1
    1       1.200000000000        1.000000000000
 14 H     1 shells
 l=0 nsto= 1
    1       1.200000000000        1.000000000000
 15 C     2 shells
 l=0 nsto= 1
    2       1.625000000000        1.000000000000
 l=1 nsto= 1
    2       1.625000000000        1.000000000000
 16 C     2 shells
 l=0 nsto= 1
    2       1.625000000000        1.000000000000
 l=1 nsto= 1
    2       1.625000000000        1.000000000000
 17 C     2 shells
 l=0 nsto= 1
    2       1.625000000000        1.000000000000
 l=1 nsto= 1
    2       1.625000000000        1.000000000000
 18 H     1 shells
 l=0 nsto= 1
    1       1.200000000000        1.000000000000
 19 H     1 shells
 l=0 nsto= 1
    1       1.200000000000        1.000000000000
 20 H     1 shells
 l=0 nsto= 1
    1       1.200000000000        1.000000000000
 21 H     1 shells
 l=0 nsto= 1
    1       1.200000000000        1.000000000000
 22 H     1 shells
 l=0 nsto= 1
    1       1.200000000000        1.000000000000
 23 H     1 shells
 l=0 nsto= 1
    1       1.200000000000        1.000000000000
 24 H     1 shells
 l=0 nsto= 1
    1       1.200000000000        1.000000000000
 25 C     2 shells
 l=0 nsto= 1
    2       1.625000000000        1.000000000000
 l=1 nsto= 1
    2       1.625000000000        1.000000000000
 26 C     2 shells
 l=0 nsto= 1
    2       1.625000000000        1.000000000000
 l=1 nsto= 1
    2       1.625000000000        1.000000000000
 27 C     2 shells
 l=0 nsto= 1
    2       1.625000000000        1.000000000000
 l=1 nsto= 1
    2       1.625000000000        1.000000000000
 28 C     2 shells
 l=0 nsto= 1
    2       1.625000000000        1.000000000000
 l=1 nsto= 1
    2       1.625000000000        1.000000000000
 29 S     2 shells
 l=0 nsto= 1
    3       1.925000000000        1.000000000000
 l=1 nsto= 1
    3       1.925000000000        1.000000000000
 30 H     1 shells
 l=0 nsto= 1
    1       1.200000000000        1.000000000000
 31 C     2 shells
 l=0 nsto= 1
    2       1.625000000000        1.000000000000
 l=1 nsto= 1
    2       1.625000000000        1.000000000000
 32 C     2 shells
 l=0 nsto= 1
    2       1.625000000000        1.000000000000
 l=1 nsto= 1
    2       1.625000000000        1.000000000000
 33 C     2 shells
 l=0 nsto= 1
    2       1.625000000000        1.000000000000
 l=1 nsto= 1
    2       1.625000000000        1.000000000000
 34 H     1 shells
 l=0 nsto= 1
    1       1.200000000000        1.000000000000
 35 H     1 shells
 l=0 nsto= 1
    1       1.200000000000        1.000000000000
 36 H     1 shells
 l=0 nsto= 1
    1       1.200000000000        1.000000000000
 37 H     1 shells
 l=0 nsto= 1
    1       1.200000000000        1.000000000000
 38 H     1 shells
 l=0 nsto= 1
    1       1.200000000000        1.000000000000
 39 H     1 shells
 l=0 nsto= 1
    1       1.200000000000        1.000000000000
 40 C     2 shells
 l=0 nsto= 1
    2       1.625000000000        1.000000000000
 l=1 nsto= 1
    2       1.625000000000        1.000000000000
 41 C     2 shells
 l=0 nsto= 1
    2       1.625000000000        1.000000000000
 l=1 nsto= 1
    2       1.625000000000        1.000000000000
 42 C     2 shells
 l=0 nsto= 1
    2       1.625000000000        1.000000000000
 l=1 nsto= 1
    2       1.625000000000        1.000000000000
 43 H     1 shells
 l=0 nsto= 1
    1       1.200000000000        1.000000000000
 44 H     1 shells
 l=0 nsto= 1
    1       1.200000000000        1.000000000000
 45 H     1 shells
 l=0 nsto= 1
    1       1.200000000000        1.000000000000
 46 H     1 shells
 l=0 nsto= 1
    1       1.200000000000        1.000000000000
 47 H     1 shells
 l=0 nsto= 1
    1       1.200000000000        1.000000000000
 48 H     1 shells
 l=0 nsto= 1
    1       1.200000000000        1.000000000000
 49 H     1 shells
 l=0 nsto= 1
    1       1.200000000000        1.000000000000
 50 H     1 shells
 l=0 nsto= 1
    1       1.200000000000        1.000000000000
 51 H     1 shells
 l=0 nsto= 1
    1       1.200000000000        1.000000000000
 52 H     1 shells
 l=0 nsto= 1
    1       1.200000000000        1.000000000000
 53 H     1 shells
 l=0 nsto= 1
    1       1.200000000000        1.000000000000
------------------------------------------------------------------------------
                           ORCA NDO INTEGRAL CALCULATION
------------------------------------------------------------------------------

--------------
NDO PARAMETERS
--------------

Gamma integral treatment              ... Mataga-Nishimoto
Nuclear repulsuion treatment          ... Direct (ZA*ZB/RAB)
Interaction factors:
s-s (sigma) =    1.0000
s-p (sigma) =    1.0000
s-d (sigma) =    1.0000
p-p (sigma) =    1.2670  p-p(pi) =    0.5850
p-d (sigma) =    1.0000  p-d(pi) =    1.0000
d-d (sigma) =    1.0000  d-d(pi) =    1.0000 d-d (delta) =    1.0000

fGamma parameter for Mataga-Nishimoto gamma integrals:    1.2000

--------------------------
Parameters for Element H :
--------------------------
 One-electron parameters (in eV)
  U(s)  =   -13.060000 Beta(s) =    12.000000 Neff(s) =     1.000000
 One-center electron repulsion parameters (in eV)
  G(s,s)=    12.850000
--------------------------
Parameters for Element C :
--------------------------
 One-electron parameters (in eV)
  U(s)  =   -50.870766 Beta(s) =    17.000000 Neff(s) =     2.000000
  U(p)  =   -41.599980 Beta(p) =    17.000000 Neff(p) =     2.000000 
 One-center electron repulsion parameters (in eV)
  G(s,s)=    11.110000
  G(s,p)=    11.110000 G(p,p)  =    11.110000
 Slater-Condon parameters (in eV)
 F2(p,p)=     4.5098 G1(s,p)=    6.8977
--------------------------
Parameters for Element S :
--------------------------
 One-electron parameters (in eV)
  U(s)  =   -69.509597 Beta(s) =    15.000000 Neff(s) =     2.000000
  U(p)  =   -60.725746 Beta(p) =    15.000000 Neff(p) =     4.000000 
 One-center electron repulsion parameters (in eV)
  G(s,s)=    10.090000
  G(s,p)=    10.090000 G(p,p)  =    10.090000
 Slater-Condon parameters (in eV)
 F2(p,p)=     4.5377 G1(s,p)=    3.0756

 Number of atoms                    ....   54
 Number of basis functions          ....  120

 Overlap integrals                  .... done
 One electron matrix                .... done
 Nuclear repulsion                  .... done
 Integral list                      .... done
 Electron-electron repulsion        .... done
-------------------------------------------------------------------------------
                                 ORCA SCF
-------------------------------------------------------------------------------

------------
SCF SETTINGS
------------
Hamiltonian:
 ZDO-Hamiltonian        Method          .... INDO


General Settings:
 Integral files         IntName         .... /Users/mattyjones/GoogleDrive/Boise/Code/MorphCT/tests/output_EZ/donor_polymer/chromophores/input_orca/pair/00007-00022
 Hartree-Fock type      HFTyp           .... RHF
 Total Charge           Charge          ....    0
 Multiplicity           Mult            ....    1
 Number of Electrons    NEL             ....  124
 Basis Dimension        Dim             ....  120
 Nuclear Repulsion      ENuc            ....    634.6902368596 Eh

Convergence Acceleration:
 DIIS                   CNVDIIS         .... on
   Start iteration      DIISMaxIt       ....    12
   Startup error        DIISStart       ....  0.200000
   # of expansion vecs  DIISMaxEq       ....     5
   Bias factor          DIISBfac        ....   1.050
   Max. coefficient     DIISMaxC        ....  10.000
 Newton-Raphson         CNVNR           .... off
 SOSCF                  CNVSOSCF        .... on
   Start iteration      SOSCFMaxIt      ....   150
   Startup grad/error   SOSCFStart      ....  0.003300
 Level Shifting         CNVShift        .... on
   Level shift para.    LevelShift      ....    0.2500
   Turn off err/grad.   ShiftErr        ....    0.0010
 Zerner damping         CNVZerner       .... off
 Static damping         CNVDamp         .... on
   Fraction old density DampFac         ....    0.7000
   Max. Damping (<1)    DampMax         ....    0.9800
   Min. Damping (>=0)   DampMin         ....    0.0000
   Turn off err/grad.   DampErr         ....    0.1000
 Fernandez-Rico         CNVRico         .... off

SCF Procedure:
 Maximum # iterations   MaxIter         ....   125
 SCF integral mode      SCFMode         .... Conventional
 Integral Buffer length BufferLength    .... 1048576
 Integral index format  IndFormat       ....     0
 Integral value format  ValFormat       ....     0
 Integral Storage       Thresh          ....  1.000e-08 Eh

Convergence Tolerance:
 Convergence Check Mode ConvCheckMode   .... Total+1el-Energy
 Energy Change          TolE            ....  1.000e-06 Eh
 1-El. energy change                    ....  1.000e-03 Eh
 Orbital Gradient       TolG            ....  5.000e-05
 Orbital Rotation angle TolX            ....  5.000e-05
 DIIS Error             TolErr          ....  1.000e-06


Diagonalization of the overlap matrix:
Smallest eigenvalue                        ... 1.690e-01
Time for diagonalization                   ...    0.003 sec
Threshold for overlap eigenvalues          ... 1.000e-08
Number of eigenvalues below threshold      ... 0
Time for construction of square roots      ...    0.001 sec
Total time needed                          ...    0.004 sec

-------------------------------
INITIAL GUESS: EXTENDED HUECKEL
-------------------------------
EHT matrix was read from disk
EHT matrix was diagonalized
Initial density was built
                      ------------------
                      INITIAL GUESS DONE
                      ------------------

 InCore treatment chosen:
   Memory dedicated               ...    1024 MB
   Memory needed                  ...      0 MB
   Number of tiny    integrals    ...       0
   Number of small   integrals    ...       0
   Number of regular integrals    ...    7392

--------------
SCF ITERATIONS
--------------
ITER       Energy         Delta-E        Max-DP      RMS-DP      [F,P]     Damp
  0    -21.1961172000   0.000000000000 0.04500354  0.00147380  0.1225654 0.7000
  1    -21.2391487802  -0.043031580177 0.04336966  0.00139116  0.0838521 0.7000
                               ***Turning on DIIS***
  2    -21.2709664325  -0.031817652340 0.11230183  0.00357451  0.0508657 0.0000
  3    -21.3528803100  -0.081913877494 0.02248150  0.00074199  0.0227045 0.0000
  4    -21.3383173618   0.014562948252 0.01271007  0.00051579  0.0086657 0.0000
  5    -21.3564454735  -0.018128111762 0.00939827  0.00035112  0.0050155 0.0000
  6    -21.3588606754  -0.002415201903 0.00745896  0.00025041  0.0027502 0.0000
                      *** Initiating the SOSCF procedure ***
                           *** Shutting down DIIS ***
                      *** Re-Reading the Fockian *** 
                      *** Removing any level shift *** 
ITER      Energy       Delta-E        Grad      Rot      Max-DP    RMS-DP
  7    -21.35486135   0.0039993303  0.003211  0.003211  0.004588  0.000143
  8    -21.35252726   0.0023340807  0.000937  0.002661  0.002371  0.000068
  9    -21.35254431  -0.0000170490  0.000410  0.002644  0.002829  0.000075
 10    -21.35255085  -0.0000065334  0.000043  0.000079  0.000138  0.000005
                 **** Energy Check signals convergence ****
              ***Rediagonalizing the Fockian in SOSCF/NRSCF***

               *****************************************************
               *                     SUCCESS                       *
               *           SCF CONVERGED AFTER  11 CYCLES          *
               *****************************************************


----------------
TOTAL SCF ENERGY
----------------

Total Energy       :          -21.35255092 Eh            -581.03245 eV

Components:
Nuclear Repulsion  :          634.69023686 Eh           17270.79938 eV
Electronic Energy  :         -656.04278777 Eh          -17851.83182 eV

One Electron Energy:        -1221.71627000 Eh          -33244.58983 eV
Two Electron Energy:          565.67348222 Eh           15392.75800 eV


---------------
SCF CONVERGENCE
---------------

  Last Energy change         ...   -6.8541e-08  Tolerance :   1.0000e-06
  Last MAX-Density change    ...    8.2616e-05  Tolerance :   1.0000e-05
  Last RMS-Density change    ...    1.8359e-06  Tolerance :   1.0000e-06
  Last Orbital Gradient      ...    2.0395e-05  Tolerance :   5.0000e-05
  Last Orbital Rotation      ...    4.0530e-05  Tolerance :   5.0000e-05

             **** THE GBW FILE WAS UPDATED (/Users/mattyjones/GoogleDrive/Boise/Code/MorphCT/tests/output_EZ/donor_polymer/chromophores/input_orca/pair/00007-00022.gbw) ****
             **** DENSITY FILE WAS UPDATED (/Users/mattyjones/GoogleDrive/Boise/Code/MorphCT/tests/output_EZ/donor_polymer/chromophores/input_orca/pair/00007-00022.scfp.tmp) ****
             **** ENERGY FILE WAS UPDATED (/Users/mattyjones/GoogleDrive/Boise/Code/MorphCT/tests/output_EZ/donor_polymer/chromophores/input_orca/pair/00007-00022.en.tmp) ****
----------------
ORBITAL ENERGIES
----------------

  NO   OCC          E(Eh)            E(eV) 
   0   2.0000      -1.558870       -42.4190 
   1   2.0000      -1.558111       -42.3984 
   2   2.0000      -1.411958       -38.4213 
   3   2.0000      -1.381498       -37.5925 
   4   2.0000      -1.292228       -35.1633 
   5   2.0000      -1.284905       -34.9640 
   6   2.0000      -1.186180       -32.2776 
   7   2.0000      -1.176669       -32.0188 
   8   2.0000      -1.116091       -30.3704 
   9   2.0000      -1.108070       -30.1521 
  10   2.0000      -1.039568       -28.2881 
  11   2.0000      -1.039527       -28.2870 
  12   2.0000      -0.972029       -26.4503 
  13   2.0000      -0.949245       -25.8303 
  14   2.0000      -0.914367       -24.8812 
  15   2.0000      -0.891977       -24.2719 
  16   2.0000      -0.858649       -23.3650 
  17   2.0000      -0.858566       -23.3628 
  18   2.0000      -0.832406       -22.6509 
  19   2.0000      -0.819493       -22.2995 
  20   2.0000      -0.772555       -21.0223 
  21   2.0000      -0.770961       -20.9789 
  22   2.0000      -0.736049       -20.0289 
  23   2.0000      -0.735775       -20.0214 
  24   2.0000      -0.709277       -19.3004 
  25   2.0000      -0.686636       -18.6843 
  26   2.0000      -0.669036       -18.2054 
  27   2.0000      -0.658387       -17.9156 
  28   2.0000      -0.648271       -17.6403 
  29   2.0000      -0.646208       -17.5842 
  30   2.0000      -0.624179       -16.9848 
  31   2.0000      -0.609962       -16.5979 
  32   2.0000      -0.585026       -15.9194 
  33   2.0000      -0.583783       -15.8855 
  34   2.0000      -0.580164       -15.7871 
  35   2.0000      -0.575236       -15.6530 
  36   2.0000      -0.575128       -15.6500 
  37   2.0000      -0.570516       -15.5245 
  38   2.0000      -0.552874       -15.0445 
  39   2.0000      -0.552185       -15.0257 
  40   2.0000      -0.541872       -14.7451 
  41   2.0000      -0.537504       -14.6262 
  42   2.0000      -0.525945       -14.3117 
  43   2.0000      -0.515006       -14.0140 
  44   2.0000      -0.506627       -13.7860 
  45   2.0000      -0.497502       -13.5377 
  46   2.0000      -0.495437       -13.4815 
  47   2.0000      -0.495182       -13.4746 
  48   2.0000      -0.488406       -13.2902 
  49   2.0000      -0.482115       -13.1190 
  50   2.0000      -0.475392       -12.9361 
  51   2.0000      -0.475286       -12.9332 
  52   2.0000      -0.472782       -12.8650 
  53   2.0000      -0.464913       -12.6509 
  54   2.0000      -0.464841       -12.6490 
  55   2.0000      -0.460999       -12.5444 
  56   2.0000      -0.438465       -11.9312 
  57   2.0000      -0.437924       -11.9165 
  58   2.0000      -0.356412        -9.6985 
  59   2.0000      -0.349579        -9.5125 
  60   2.0000      -0.305263        -8.3066 
  61   2.0000      -0.304635        -8.2895 
  62   0.0000       0.002797         0.0761 
  63   0.0000       0.008097         0.2203 
  64   0.0000       0.058495         1.5917 
  65   0.0000       0.065272         1.7761 
  66   0.0000       0.071883         1.9560 
  67   0.0000       0.079733         2.1697 
  68   0.0000       0.087212         2.3732 
  69   0.0000       0.087947         2.3932 
  70   0.0000       0.104469         2.8427 
  71   0.0000       0.105471         2.8700 
  72   0.0000       0.108234         2.9452 
  73   0.0000       0.108898         2.9633 
  74   0.0000       0.123967         3.3733 
  75   0.0000       0.127019         3.4564 
  76   0.0000       0.142217         3.8699 
  77   0.0000       0.142388         3.8746 
  78   0.0000       0.156419         4.2564 
  79   0.0000       0.158090         4.3018 
  80   0.0000       0.165105         4.4927 
  81   0.0000       0.168684         4.5901 
  82   0.0000       0.170877         4.6498 
  83   0.0000       0.176268         4.7965 
  84   0.0000       0.199173         5.4198 
  85   0.0000       0.206832         5.6282 
  86   0.0000       0.232144         6.3170 
  87   0.0000       0.234991         6.3944 
  88   0.0000       0.235889         6.4189 
  89   0.0000       0.236254         6.4288 
  90   0.0000       0.237293         6.4571 
  91   0.0000       0.239036         6.5045 
  92   0.0000       0.239567         6.5189 
  93   0.0000       0.240081         6.5329 
  94   0.0000       0.241206         6.5636 
  95   0.0000       0.241578         6.5737 
  96   0.0000       0.242605         6.6016 
  97   0.0000       0.244310         6.6480 
  98   0.0000       0.244658         6.6575 
  99   0.0000       0.245532         6.6813 
 100   0.0000       0.246102         6.6968 
 101   0.0000       0.249505         6.7894 
 102   0.0000       0.255132         6.9425 
 103   0.0000       0.265436         7.2229 
 104   0.0000       0.266243         7.2448 
 105   0.0000       0.267400         7.2763 
 106   0.0000       0.277688         7.5563 
 107   0.0000       0.280459         7.6317 
 108   0.0000       0.301936         8.2161 
 109   0.0000       0.302356         8.2275 
 110   0.0000       0.308799         8.4028 
 111   0.0000       0.310446         8.4477 
 112   0.0000       0.335571         9.1314 
 113   0.0000       0.342816         9.3285 
 114   0.0000       0.351599         9.5675 
 115   0.0000       0.354733         9.6528 
 116   0.0000       0.413834        11.2610 
 117   0.0000       0.415452        11.3050 
 118   0.0000       0.428399        11.6573 
 119   0.0000       0.430050        11.7023 
-------
TIMINGS
-------

Total SCF time: 0 days 0 hours 0 min 0 sec 

Total time                  ....       0.129 sec
Sum of individual times     ....       0.104 sec  ( 80.9%)

Fock matrix formation       ....       0.048 sec  ( 37.6%)
Diagonalization             ....       0.024 sec  ( 18.9%)
Density matrix formation    ....       0.006 sec  (  4.5%)
Population analysis         ....       0.000 sec  (  0.0%)
Initial guess               ....       0.003 sec  (  2.3%)
Orbital Transformation      ....       0.000 sec  (  0.0%)
Orbital Orthonormalization  ....       0.000 sec  (  0.0%)
DIIS solution               ....       0.017 sec  ( 13.4%)
SOSCF solution              ....       0.005 sec  (  4.1%)

-------------------------   --------------------
FINAL SINGLE POINT ENERGY       -21.352550915295
-------------------------   --------------------


                            ***************************************
                            *     ORCA property calculations      *
                            ***************************************

                                    ---------------------
                                    Active property flags
                                    ---------------------
   (+) Dipole Moment


------------------------------------------------------------------------------
                       ORCA ELECTRIC PROPERTIES CALCULATION
------------------------------------------------------------------------------

Dipole Moment Calculation                       ... on
Quadrupole Moment Calculation                   ... off
Polarizability Calculation                      ... off
GBWName                                         ... /Users/mattyjones/GoogleDrive/Boise/Code/MorphCT/tests/output_EZ/donor_polymer/chromophores/input_orca/pair/00007-00022.gbw
Electron density file                           ... /Users/mattyjones/GoogleDrive/Boise/Code/MorphCT/tests/output_EZ/donor_polymer/chromophores/input_orca/pair/00007-00022.scfp.tmp

-------------
DIPOLE MOMENT
-------------
                                X             Y             Z
Electronic contribution:   -171.98323    -159.80934      63.43358
Nuclear contribution   :     98.55275      85.39835     -34.75861
                        -----------------------------------------
Total Dipole Moment    :    -73.43048     -74.41099      28.67498
                        -----------------------------------------
Magnitude (a.u.)       :    108.40334
Magnitude (Debye)      :    275.53939


Timings for individual modules:

Sum of individual times         ...        0.208 sec (=   0.003 min)
STO integral calculation        ...        0.040 sec (=   0.001 min)  19.3 %
SCF iterations                  ...        0.168 sec (=   0.003 min)  80.7 %
                             ****ORCA TERMINATED NORMALLY****
TOTAL RUN TIME: 0 days 0 hours 0 minutes 0 seconds 514 msec

