
                                 *****************
                                 * O   R   C   A *
                                 *****************

           --- An Ab Initio, DFT and Semiempirical electronic structure package ---

                  #######################################################
                  #                        -***-                        #
                  #  Department of molecular theory and spectroscopy    #
                  #              Directorship: Frank Neese              #
                  # Max Planck Institute for Chemical Energy Conversion #
                  #                  D-45470 Muelheim/Ruhr              #
                  #                       Germany                       #
                  #                                                     #
                  #                  All rights reserved                #
                  #                        -***-                        #
                  #######################################################


                         Program Version 3.0.3 - RELEASE   -


 With contributions from (in alphabetic order):
   Ute Becker             : Parallelization
   Dmytro Bykov           : SCF Hessian
   Dmitry Ganyushin       : Spin-Orbit,Spin-Spin,Magnetic field MRCI
   Andreas Hansen         : Spin unrestricted coupled pair/coupled cluster methods
   Dimitrios Liakos       : Extrapolation schemes; parallel MDCI
   Robert Izsak           : Overlap fitted RIJCOSX, COSX-SCS-MP3
   Christian Kollmar      : KDIIS, OOCD, Brueckner-CCSD(T), CCSD density
   Simone Kossmann        : Meta GGA functionals, TD-DFT gradient, OOMP2, MP2 Hessian
   Taras Petrenko         : DFT Hessian,TD-DFT gradient, ASA and ECA modules, normal mode analysis, Resonance Raman, ABS, FL, XAS/XES, NRVS
   Christoph Reimann      : Effective Core Potentials
   Michael Roemelt        : Restricted open shell CIS
   Christoph Riplinger    : Improved optimizer, TS searches, QM/MM, DLPNO-CCSD
   Barbara Sandhoefer     : DKH picture change effects
   Igor Schapiro          : Molecular dynamics
   Kantharuban Sivalingam : CASSCF convergence, NEVPT2
   Boris Wezisla          : Elementary symmetry handling
   Frank Wennmohs         : Technical directorship


 We gratefully acknowledge several colleagues who have allowed us to
 interface, adapt or use parts of their codes:
   Stefan Grimme, W. Hujo, H. Kruse, T. Risthaus : VdW corrections, initial TS optimization,
                                                   DFT functionals, gCP
   Ed Valeev                                     : LibInt (2-el integral package), F12 methods
   Garnet Chan, S. Sharma, R. Olivares           : DMRG
   Ulf Ekstrom                                   : XCFun DFT Library
   Mihaly Kallay                                 : mrcc  (arbitrary order and MRCC methods)
   Andreas Klamt, Michael Diedenhofen            : otool_cosmo (COSMO solvation model)
   Frank Weinhold                                : gennbo (NPA and NBO analysis)
   Christopher J. Cramer and Donald G. Truhlar   : smd solvation model


 Your calculation uses the libint2 library for the computation of 2-el integrals
 For citations please refer to: http://libint.valeyev.net

 This ORCA versions uses:
   CBLAS   interface :  Fast vector & matrix operations
   LAPACKE interface :  Fast linear algebra routines
   SCALAPACK package :  Parallel linear algebra routines


leaving
================================================================================
                                        WARNINGS
                       Please study these warnings very carefully!
================================================================================
Now building the actual basis set

WARNING: Direct SCF is incompatible with Method<>HF and Method<>DFT
  ===> : conventional SCF is chosen

WARNING: The NDO methods need Guess=HUECKEL or Guess=HCORE or Guess=MOREAD
  ===> : Guess is set to Hueckel

WARNING: The NDO methods need %rel::SOCType==1
  ===> : %rel::SOCType is set to 1

WARNING: The NDO methods cannot have frozencore=1
  ===> : %method FrozenCore=0 end


INFO   : the flag for use of LIBINT has been found!

================================================================================
                                       INPUT FILE
================================================================================
NAME = /Users/mattyjones/GoogleDrive/Boise/Code/MorphCT/tests/output_EZ/donor_polymer/chromophores/input_orca/pair/00002-00004.inp
|  1> # ================================================================
|  2> # Orca input file made by Matty Jones
|  3> # ================================================================
|  4> ! ZINDO/S 
|  5> ! NOPOP
|  6> ! NOMOPRINT
|  7> * xyz 0   1
|  8>  C  0.70735  6.77090  -1.30435
|  9>  C  -0.12653  5.65858  -1.18064
| 10>  C  0.41340  4.61129  -0.37075
| 11>  C  1.68002  4.89807  0.14766
| 12>  S  2.05989  6.41105  -0.41538
| 13>  H  -1.23523  5.70022  -1.43477
| 14>  C  -0.45197  3.27166  -0.16795
| 15>  C  -2.12601  3.44387  -0.06485
| 16>  C  -2.66748  3.41587  -1.67621
| 17>  H  -3.69705  3.93710  -1.70294
| 18>  H  -1.93353  3.99320  -2.35278
| 19>  H  -2.58321  2.56988  0.52063
| 20>  H  -2.39386  4.44588  0.42288
| 21>  H  -0.20541  2.77032  0.86140
| 22>  H  -0.19415  2.51321  -1.00932
| 23>  C  -2.78388  1.89930  -2.25312
| 24>  C  -3.20882  1.75080  -3.88226
| 25>  C  -3.49291  3.18232  -4.71746
| 26>  H  -4.03601  2.93620  -5.71075
| 27>  H  -2.48472  3.70145  -4.94726
| 28>  H  -4.15697  3.88343  -4.08096
| 29>  H  -2.34809  1.19927  -4.41862
| 30>  H  -4.16604  1.11084  -3.93852
| 31>  H  -1.76541  1.36230  -2.12755
| 32>  H  -3.57651  1.32362  -1.63562
| 33>  C  4.15139  -0.00188  2.78090
| 34>  C  3.55363  -1.20951  2.41729
| 35>  C  4.05538  -2.34583  3.12531
| 36>  C  5.05439  -2.03389  4.05268
| 37>  S  5.26139  -0.39167  3.94925
| 38>  H  2.72502  -1.31600  1.63917
| 39>  C  3.45470  -3.82570  2.83805
| 40>  C  1.76542  -4.11923  3.02165
| 41>  C  0.34154  -4.00761  2.06248
| 42>  H  -0.35057  -4.83138  2.50841
| 43>  H  -0.10541  -2.97875  2.37215
| 44>  H  1.74893  -5.23572  3.34095
| 45>  H  1.49824  -3.47339  3.94790
| 46>  H  3.99117  -4.64163  3.46289
| 47>  H  3.65744  -4.07803  1.71146
| 48>  C  0.18555  -4.10186  0.44166
| 49>  C  -0.30960  -5.60371  -0.18171
| 50>  C  -1.97977  -5.82263  -0.31571
| 51>  H  -2.20362  -6.94885  -0.46287
| 52>  H  -2.37320  -5.22751  -1.22614
| 53>  H  -2.49583  -5.44703  0.64905
| 54>  H  0.13881  -5.70697  -1.23817
| 55>  H  0.10696  -6.43234  0.49971
| 56>  H  -0.59953  -3.32450  0.09442
| 57>  H  1.19977  -3.84685  -0.05088
| 58>  H  0.51628  7.65856  -1.85129
| 59>  H  2.27319  4.27821  0.77017
| 60>  H  3.94027  0.96137  2.39210
| 61>  H  5.57118  -2.70627  4.68862
| 62> *
| 63> 
| 64>                          ****END OF INPUT****
================================================================================

                       ****************************
                       * Single Point Calculation *
                       ****************************

---------------------------------
CARTESIAN COORDINATES (ANGSTROEM)
---------------------------------
  C      0.707350    6.770900   -1.304350
  C     -0.126530    5.658580   -1.180640
  C      0.413400    4.611290   -0.370750
  C      1.680020    4.898070    0.147660
  S      2.059890    6.411050   -0.415380
  H     -1.235230    5.700220   -1.434770
  C     -0.451970    3.271660   -0.167950
  C     -2.126010    3.443870   -0.064850
  C     -2.667480    3.415870   -1.676210
  H     -3.697050    3.937100   -1.702940
  H     -1.933530    3.993200   -2.352780
  H     -2.583210    2.569880    0.520630
  H     -2.393860    4.445880    0.422880
  H     -0.205410    2.770320    0.861400
  H     -0.194150    2.513210   -1.009320
  C     -2.783880    1.899300   -2.253120
  C     -3.208820    1.750800   -3.882260
  C     -3.492910    3.182320   -4.717460
  H     -4.036010    2.936200   -5.710750
  H     -2.484720    3.701450   -4.947260
  H     -4.156970    3.883430   -4.080960
  H     -2.348090    1.199270   -4.418620
  H     -4.166040    1.110840   -3.938520
  H     -1.765410    1.362300   -2.127550
  H     -3.576510    1.323620   -1.635620
  C      4.151390   -0.001880    2.780900
  C      3.553630   -1.209510    2.417290
  C      4.055380   -2.345830    3.125310
  C      5.054390   -2.033890    4.052680
  S      5.261390   -0.391670    3.949250
  H      2.725020   -1.316000    1.639170
  C      3.454700   -3.825700    2.838050
  C      1.765420   -4.119230    3.021650
  C      0.341540   -4.007610    2.062480
  H     -0.350570   -4.831380    2.508410
  H     -0.105410   -2.978750    2.372150
  H      1.748930   -5.235720    3.340950
  H      1.498240   -3.473390    3.947900
  H      3.991170   -4.641630    3.462890
  H      3.657440   -4.078030    1.711460
  C      0.185550   -4.101860    0.441660
  C     -0.309600   -5.603710   -0.181710
  C     -1.979770   -5.822630   -0.315710
  H     -2.203620   -6.948850   -0.462870
  H     -2.373200   -5.227510   -1.226140
  H     -2.495830   -5.447030    0.649050
  H      0.138810   -5.706970   -1.238170
  H      0.106960   -6.432340    0.499710
  H     -0.599530   -3.324500    0.094420
  H      1.199770   -3.846850   -0.050880
  H      0.516280    7.658560   -1.851290
  H      2.273190    4.278210    0.770170
  H      3.940270    0.961370    2.392100
  H      5.571180   -2.706270    4.688620

----------------------------
CARTESIAN COORDINATES (A.U.)
----------------------------
  NO LB      ZA    FRAG    MASS        X           Y           Z
   0 C     4.0000    0    12.011          1.336697780829197         12.795146680167402         -2.464864282780185
   1 C     4.0000    0    12.011         -0.239107047725056         10.693166506884115         -2.231086262752787
   2 C     4.0000    0    12.011          0.781212783763045          8.714075224089729         -0.700615964151304
   3 C     4.0000    0    12.011          3.174777699510381          9.256010884775664          0.279036960934812
   4 S     6.0000    0    32.060          3.892627966003047         12.115128730875842         -0.784954441508210
   5 H     1.0000    0     1.008         -2.334246412403548         10.771854703100598         -2.711322365166195
   6 C     4.0000    0    12.011         -0.854099520748388          6.182541403304802         -0.317379504192074
   7 C     4.0000    0    12.011         -4.017576657977920          6.507971140827381         -0.122548739784793
   8 C     4.0000    0    12.011         -5.040806667712260          6.455058809077586         -3.167577842940141
   9 H     1.0000    0     1.008         -6.986412003413563          7.440040761861360         -3.218090222499856
  10 H     1.0000    0     1.008         -3.653842171720758          7.546054397974342         -4.446109853367243
  11 H     1.0000    0     1.008         -4.881559446406716          4.856369397041546          0.983848117103421
  12 H     1.0000    0     1.008         -4.523739802948728          8.401495624277814          0.799127387512619
  13 H     1.0000    0     1.008         -0.388168645168764          5.235146103324722          1.627810091759766
  14 H     1.0000    0     1.008         -0.366890328900811          4.749278617032229         -1.907338381489398
  15 C     4.0000    0    12.011         -5.260770789700694          3.589156846156633         -4.257779746860651
  16 C     4.0000    0    12.011         -6.063791013049190          3.308532515269327         -7.336408180677118
  17 C     4.0000    0    12.011         -6.600643310434879          6.013713270500277         -8.914707447728148
  18 H     1.0000    0     1.008         -7.626953573767511          5.548613874419579        -10.791753519290788
  19 H     1.0000    0     1.008         -4.695440319476812          6.994726798402817         -9.348966513303251
  20 H     1.0000    0     1.008         -7.855534846926626          7.338619160253806         -7.711896763487271
  21 H     1.0000    0     1.008         -4.437247037799152          2.266291860627740         -8.349981689867121
  22 H     1.0000    0     1.008         -7.872674662961291          2.099183378605083         -7.442724172971528
  23 H     1.0000    0     1.008         -3.336141414085917          2.574373912240921         -4.020486836224158
  24 H     1.0000    0     1.008         -6.758624415230695          2.501279305380847         -3.090873859164278
  25 C     4.0000    0    12.011          7.844990175099345         -0.003552685131772          5.255139405821609
  26 C     4.0000    0    12.011          6.715387481286577         -2.285642656239093          4.568016086266502
  27 C     4.0000    0    12.011          7.663557568981567         -4.432976256736490          5.905979983605427
  28 C     4.0000    0    12.011          9.551412874030234         -3.843495086521095          7.658455308419978
  29 S     6.0000    0    32.060          9.942586183751933         -0.740149034872937          7.463000934388504
  30 H     1.0000    0     1.008          5.149541509458089         -2.486879592240367          3.097582386939698
  31 C     4.0000    0    12.011          6.528436874857748         -7.229525270542532          5.363137254375208
  32 C     4.0000    0    12.011          3.336160311347256         -7.784216582632437          5.710090972563150
  33 C     4.0000    0    12.011          0.645417063779464         -7.573285351564147          3.897522356689903
  34 H     1.0000    0     1.008         -0.662481290768773         -9.129985048904457          4.740207931589407
  35 H     1.0000    0     1.008         -0.199196031776639         -5.629021721417928          4.482713848581297
  36 H     1.0000    0     1.008          3.304998727398895         -9.894076913894175          6.313480527124206
  37 H     1.0000    0     1.008          2.831263282886176         -6.563755856300737          7.460449804107710
  38 H     1.0000    0     1.008          7.542218253922481         -8.771409514992900          6.543913731894563
  39 H     1.0000    0     1.008          6.911559951248942         -7.706359865914882          3.234190689160865
  40 C     4.0000    0    12.011          0.350638684149088         -7.751392039686226          0.834616444307660
  41 C     4.0000    0    12.011         -0.585059211062020        -10.589477233915858         -0.343382135794831
  42 C     4.0000    0    12.011         -3.741223108153276        -11.003176079153898         -0.596605437740278
  43 H     1.0000    0     1.008         -4.164238303231548        -13.131423445698690         -0.874697535608130
  44 H     1.0000    0     1.008         -4.484698061021914         -9.878562262334682         -2.317068801846204
  45 H     1.0000    0     1.008         -4.716435176824678        -10.293394943253075          1.226526747221588
  46 H     1.0000    0     1.008          0.262312884649609        -10.784610354504565         -2.339802207237276
  47 H     1.0000    0     1.008          0.202125107284217        -12.155361000267023          0.944315046381789
  48 H     1.0000    0     1.008         -1.132947509069808         -6.282394532221201          0.178427941564845
  49 H     1.0000    0     1.008          2.267236723694700         -7.269492978274966         -0.096149265693913
  50 H     1.0000    0     1.008          0.975627808420864         14.472580980203940         -3.498431094467074
  51 H     1.0000    0     1.008          4.295706550368450          8.084645243403237          1.455410376562130
  52 H     1.0000    0     1.008          7.446031193705890          1.816726013367874          4.520413884953026
  53 H     1.0000    0     1.008         10.528004442779398         -5.114109144447066          8.860207746025859

--------------------------------
INTERNAL COORDINATES (ANGSTROEM)
--------------------------------
 C      0   0   0   0.000000     0.000     0.000
 C      1   0   0   1.395678     0.000     0.000
 C      2   1   0   1.429777   114.102     0.000
 C      3   2   1   1.398327   113.693     0.000
 S      1   2   3   1.658048   105.479     0.000
 H      2   1   3   1.138214   122.211   163.048
 C      3   2   1   1.607670   118.590   180.620
 C      7   3   2   1.686030   117.197   324.252
 C      8   7   3   1.700134   104.867    86.554
 H      9   8   7   1.154300   107.373   202.259
 H      9   8   7   1.153143   110.190   321.027
 H      8   7   3   1.147030   110.435   205.177
 H      8   7   3   1.146145   110.325   328.058
 H      7   3   2   1.171194   110.747   208.537
 H      7   3   2   1.161732   109.463    89.469
 C      9   8   7   1.626763   111.979    80.891
 C     16   9   8   1.690184   116.214   184.164
 C     17  16   9   1.681522   116.515   358.853
 H     18  17  16   1.158515   108.917   194.851
 H     18  17  16   1.157044   109.475    75.172
 H     18  17  16   1.156574   109.860   314.609
 H     17  16   9   1.154436   107.599   119.665
 H     17  16   9   1.152816   107.732   237.455
 H     16   9   8   1.158196   109.322   304.768
 H     16   9   8   1.158005   108.864    62.865
 C     14   7   3   5.509200   133.480   287.689
 C     26  14   7   1.395672    90.339   266.272
 C     27  26  14   1.429779   114.102   201.795
 C     28  27  26   1.398336   113.693     0.000
 S     26  14   7   1.658034   153.284   139.012
 H     27  26  14   1.141668   124.689    20.951
 C     28  27  26   1.622760   120.478   179.184
 C     32  28  27   1.724394   119.934   303.193
 C     33  32  28   1.720436   137.763    87.681
 H     34  33  32   1.164675   103.442   150.890
 H     34  33  32   1.163706   103.113   262.441
 H     33  32  28   1.161367   101.936   210.560
 H     33  32  28   1.160359   102.463   322.503
 H     32  28  27   1.159296   112.033   177.969
 H     32  28  27   1.172168   107.603    61.056
 C     34  33  32   1.631034   129.008    26.295
 C     41  34  33   1.699799   116.318    99.017
 C     42  41  34   1.689778   115.561    89.258
 H     43  42  41   1.157643   109.102   195.535
 H     43  42  41   1.156649   109.388    75.707
 H     43  42  41   1.156787   109.435   315.458
 H     42  41  34   1.152320   107.580   209.307
 H     42  41  34   1.150862   108.275   327.825
 H     41  34  33   1.158108   108.905   219.430
 H     41  34  33   1.155971   109.072   337.797
 H      1   2   3   1.059996   127.260   180.001
 H      4   3   2   1.059998   127.206   180.001
 H     26  14   7   1.059994    42.049    60.091
 H     29  28  27   1.059994   127.207   180.000

---------------------------
INTERNAL COORDINATES (A.U.)
---------------------------
 C      0   0   0   0.000000     0.000     0.000
 C      1   0   0   2.637448     0.000     0.000
 C      2   1   0   2.701887   114.102     0.000
 C      3   2   1   2.642455   113.693     0.000
 S      1   2   3   3.133257   105.479     0.000
 H      2   1   3   2.150913   122.211   163.048
 C      3   2   1   3.038055   118.590   180.620
 C      7   3   2   3.186134   117.197   324.252
 C      8   7   3   3.212787   104.867    86.554
 H      9   8   7   2.181312   107.373   202.259
 H      9   8   7   2.179125   110.190   321.027
 H      8   7   3   2.167572   110.435   205.177
 H      8   7   3   2.165900   110.325   328.058
 H      7   3   2   2.213236   110.747   208.537
 H      7   3   2   2.195355   109.463    89.469
 C      9   8   7   3.074137   111.979    80.891
 C     16   9   8   3.193986   116.214   184.164
 C     17  16   9   3.177616   116.515   358.853
 H     18  17  16   2.189277   108.917   194.851
 H     18  17  16   2.186496   109.475    75.172
 H     18  17  16   2.185608   109.860   314.609
 H     17  16   9   2.181569   107.599   119.665
 H     17  16   9   2.178506   107.732   237.455
 H     16   9   8   2.188673   109.322   304.768
 H     16   9   8   2.188313   108.864    62.865
 C     14   7   3  10.410878   133.480   287.689
 C     26  14   7   2.637437    90.339   266.272
 C     27  26  14   2.701891   114.102   201.795
 C     28  27  26   2.642471   113.693     0.000
 S     26  14   7   3.133231   153.284   139.012
 H     27  26  14   2.157439   124.689    20.951
 C     28  27  26   3.066572   120.478   179.184
 C     32  28  27   3.258633   119.934   303.193
 C     33  32  28   3.251153   137.763    87.681
 H     34  33  32   2.200916   103.442   150.890
 H     34  33  32   2.199086   103.113   262.441
 H     33  32  28   2.194666   101.936   210.560
 H     33  32  28   2.192761   102.463   322.503
 H     32  28  27   2.190752   112.033   177.969
 H     32  28  27   2.215077   107.603    61.056
 C     34  33  32   3.082208   129.008    26.295
 C     41  34  33   3.212155   116.318    99.017
 C     42  41  34   3.193218   115.561    89.258
 H     43  42  41   2.187627   109.102   195.535
 H     43  42  41   2.185751   109.388    75.707
 H     43  42  41   2.186010   109.435   315.458
 H     42  41  34   2.177570   107.580   209.307
 H     42  41  34   2.174814   108.275   327.825
 H     41  34  33   2.188507   108.905   219.430
 H     41  34  33   2.184468   109.072   337.797
 H      1   2   3   2.003102   127.260   180.001
 H      4   3   2   2.003106   127.206   180.001
 H     26  14   7   2.003099    42.049    60.091
 H     29  28  27   2.003098   127.207   180.000

----------------------------
SLATER BASIS SET DIM= 120
----------------------------
  0 C     2 shells
 l=0 nsto= 1
    2       1.625000000000        1.000000000000
 l=1 nsto= 1
    2       1.625000000000        1.000000000000
  1 C     2 shells
 l=0 nsto= 1
    2       1.625000000000        1.000000000000
 l=1 nsto= 1
    2       1.625000000000        1.000000000000
  2 C     2 shells
 l=0 nsto= 1
    2       1.625000000000        1.000000000000
 l=1 nsto= 1
    2       1.625000000000        1.000000000000
  3 C     2 shells
 l=0 nsto= 1
    2       1.625000000000        1.000000000000
 l=1 nsto= 1
    2       1.625000000000        1.000000000000
  4 S     2 shells
 l=0 nsto= 1
    3       1.925000000000        1.000000000000
 l=1 nsto= 1
    3       1.925000000000        1.000000000000
  5 H     1 shells
 l=0 nsto= 1
    1       1.200000000000        1.000000000000
  6 C     2 shells
 l=0 nsto= 1
    2       1.625000000000        1.000000000000
 l=1 nsto= 1
    2       1.625000000000        1.000000000000
  7 C     2 shells
 l=0 nsto= 1
    2       1.625000000000        1.000000000000
 l=1 nsto= 1
    2       1.625000000000        1.000000000000
  8 C     2 shells
 l=0 nsto= 1
    2       1.625000000000        1.000000000000
 l=1 nsto= 1
    2       1.625000000000        1.000000000000
  9 H     1 shells
 l=0 nsto= 1
    1       1.200000000000        1.000000000000
 10 H     1 shells
 l=0 nsto= 1
    1       1.200000000000        1.000000000000
 11 H     1 shells
 l=0 nsto= 1
    1       1.200000000000        1.000000000000
 12 H     1 shells
 l=0 nsto= 1
    1       1.200000000000        1.000000000000
 13 H     1 shells
 l=0 nsto= 1
    1       1.200000000000        1.000000000000
 14 H     1 shells
 l=0 nsto= 1
    1       1.200000000000        1.000000000000
 15 C     2 shells
 l=0 nsto= 1
    2       1.625000000000        1.000000000000
 l=1 nsto= 1
    2       1.625000000000        1.000000000000
 16 C     2 shells
 l=0 nsto= 1
    2       1.625000000000        1.000000000000
 l=1 nsto= 1
    2       1.625000000000        1.000000000000
 17 C     2 shells
 l=0 nsto= 1
    2       1.625000000000        1.000000000000
 l=1 nsto= 1
    2       1.625000000000        1.000000000000
 18 H     1 shells
 l=0 nsto= 1
    1       1.200000000000        1.000000000000
 19 H     1 shells
 l=0 nsto= 1
    1       1.200000000000        1.000000000000
 20 H     1 shells
 l=0 nsto= 1
    1       1.200000000000        1.000000000000
 21 H     1 shells
 l=0 nsto= 1
    1       1.200000000000        1.000000000000
 22 H     1 shells
 l=0 nsto= 1
    1       1.200000000000        1.000000000000
 23 H     1 shells
 l=0 nsto= 1
    1       1.200000000000        1.000000000000
 24 H     1 shells
 l=0 nsto= 1
    1       1.200000000000        1.000000000000
 25 C     2 shells
 l=0 nsto= 1
    2       1.625000000000        1.000000000000
 l=1 nsto= 1
    2       1.625000000000        1.000000000000
 26 C     2 shells
 l=0 nsto= 1
    2       1.625000000000        1.000000000000
 l=1 nsto= 1
    2       1.625000000000        1.000000000000
 27 C     2 shells
 l=0 nsto= 1
    2       1.625000000000        1.000000000000
 l=1 nsto= 1
    2       1.625000000000        1.000000000000
 28 C     2 shells
 l=0 nsto= 1
    2       1.625000000000        1.000000000000
 l=1 nsto= 1
    2       1.625000000000        1.000000000000
 29 S     2 shells
 l=0 nsto= 1
    3       1.925000000000        1.000000000000
 l=1 nsto= 1
    3       1.925000000000        1.000000000000
 30 H     1 shells
 l=0 nsto= 1
    1       1.200000000000        1.000000000000
 31 C     2 shells
 l=0 nsto= 1
    2       1.625000000000        1.000000000000
 l=1 nsto= 1
    2       1.625000000000        1.000000000000
 32 C     2 shells
 l=0 nsto= 1
    2       1.625000000000        1.000000000000
 l=1 nsto= 1
    2       1.625000000000        1.000000000000
 33 C     2 shells
 l=0 nsto= 1
    2       1.625000000000        1.000000000000
 l=1 nsto= 1
    2       1.625000000000        1.000000000000
 34 H     1 shells
 l=0 nsto= 1
    1       1.200000000000        1.000000000000
 35 H     1 shells
 l=0 nsto= 1
    1       1.200000000000        1.000000000000
 36 H     1 shells
 l=0 nsto= 1
    1       1.200000000000        1.000000000000
 37 H     1 shells
 l=0 nsto= 1
    1       1.200000000000        1.000000000000
 38 H     1 shells
 l=0 nsto= 1
    1       1.200000000000        1.000000000000
 39 H     1 shells
 l=0 nsto= 1
    1       1.200000000000        1.000000000000
 40 C     2 shells
 l=0 nsto= 1
    2       1.625000000000        1.000000000000
 l=1 nsto= 1
    2       1.625000000000        1.000000000000
 41 C     2 shells
 l=0 nsto= 1
    2       1.625000000000        1.000000000000
 l=1 nsto= 1
    2       1.625000000000        1.000000000000
 42 C     2 shells
 l=0 nsto= 1
    2       1.625000000000        1.000000000000
 l=1 nsto= 1
    2       1.625000000000        1.000000000000
 43 H     1 shells
 l=0 nsto= 1
    1       1.200000000000        1.000000000000
 44 H     1 shells
 l=0 nsto= 1
    1       1.200000000000        1.000000000000
 45 H     1 shells
 l=0 nsto= 1
    1       1.200000000000        1.000000000000
 46 H     1 shells
 l=0 nsto= 1
    1       1.200000000000        1.000000000000
 47 H     1 shells
 l=0 nsto= 1
    1       1.200000000000        1.000000000000
 48 H     1 shells
 l=0 nsto= 1
    1       1.200000000000        1.000000000000
 49 H     1 shells
 l=0 nsto= 1
    1       1.200000000000        1.000000000000
 50 H     1 shells
 l=0 nsto= 1
    1       1.200000000000        1.000000000000
 51 H     1 shells
 l=0 nsto= 1
    1       1.200000000000        1.000000000000
 52 H     1 shells
 l=0 nsto= 1
    1       1.200000000000        1.000000000000
 53 H     1 shells
 l=0 nsto= 1
    1       1.200000000000        1.000000000000
------------------------------------------------------------------------------
                           ORCA NDO INTEGRAL CALCULATION
------------------------------------------------------------------------------

--------------
NDO PARAMETERS
--------------

Gamma integral treatment              ... Mataga-Nishimoto
Nuclear repulsuion treatment          ... Direct (ZA*ZB/RAB)
Interaction factors:
s-s (sigma) =    1.0000
s-p (sigma) =    1.0000
s-d (sigma) =    1.0000
p-p (sigma) =    1.2670  p-p(pi) =    0.5850
p-d (sigma) =    1.0000  p-d(pi) =    1.0000
d-d (sigma) =    1.0000  d-d(pi) =    1.0000 d-d (delta) =    1.0000

fGamma parameter for Mataga-Nishimoto gamma integrals:    1.2000

--------------------------
Parameters for Element H :
--------------------------
 One-electron parameters (in eV)
  U(s)  =   -13.060000 Beta(s) =    12.000000 Neff(s) =     1.000000
 One-center electron repulsion parameters (in eV)
  G(s,s)=    12.850000
--------------------------
Parameters for Element C :
--------------------------
 One-electron parameters (in eV)
  U(s)  =   -50.870766 Beta(s) =    17.000000 Neff(s) =     2.000000
  U(p)  =   -41.599980 Beta(p) =    17.000000 Neff(p) =     2.000000 
 One-center electron repulsion parameters (in eV)
  G(s,s)=    11.110000
  G(s,p)=    11.110000 G(p,p)  =    11.110000
 Slater-Condon parameters (in eV)
 F2(p,p)=     4.5098 G1(s,p)=    6.8977
--------------------------
Parameters for Element S :
--------------------------
 One-electron parameters (in eV)
  U(s)  =   -69.509597 Beta(s) =    15.000000 Neff(s) =     2.000000
  U(p)  =   -60.725746 Beta(p) =    15.000000 Neff(p) =     4.000000 
 One-center electron repulsion parameters (in eV)
  G(s,s)=    10.090000
  G(s,p)=    10.090000 G(p,p)  =    10.090000
 Slater-Condon parameters (in eV)
 F2(p,p)=     4.5377 G1(s,p)=    3.0756

 Number of atoms                    ....   54
 Number of basis functions          ....  120

 Overlap integrals                  .... done
 One electron matrix                .... done
 Nuclear repulsion                  .... done
 Integral list                      .... done
 Electron-electron repulsion        .... done
-------------------------------------------------------------------------------
                                 ORCA SCF
-------------------------------------------------------------------------------

------------
SCF SETTINGS
------------
Hamiltonian:
 ZDO-Hamiltonian        Method          .... INDO


General Settings:
 Integral files         IntName         .... /Users/mattyjones/GoogleDrive/Boise/Code/MorphCT/tests/output_EZ/donor_polymer/chromophores/input_orca/pair/00002-00004
 Hartree-Fock type      HFTyp           .... RHF
 Total Charge           Charge          ....    0
 Multiplicity           Mult            ....    1
 Number of Electrons    NEL             ....  124
 Basis Dimension        Dim             ....  120
 Nuclear Repulsion      ENuc            ....    812.1935821745 Eh

Convergence Acceleration:
 DIIS                   CNVDIIS         .... on
   Start iteration      DIISMaxIt       ....    12
   Startup error        DIISStart       ....  0.200000
   # of expansion vecs  DIISMaxEq       ....     5
   Bias factor          DIISBfac        ....   1.050
   Max. coefficient     DIISMaxC        ....  10.000
 Newton-Raphson         CNVNR           .... off
 SOSCF                  CNVSOSCF        .... on
   Start iteration      SOSCFMaxIt      ....   150
   Startup grad/error   SOSCFStart      ....  0.003300
 Level Shifting         CNVShift        .... on
   Level shift para.    LevelShift      ....    0.2500
   Turn off err/grad.   ShiftErr        ....    0.0010
 Zerner damping         CNVZerner       .... off
 Static damping         CNVDamp         .... on
   Fraction old density DampFac         ....    0.7000
   Max. Damping (<1)    DampMax         ....    0.9800
   Min. Damping (>=0)   DampMin         ....    0.0000
   Turn off err/grad.   DampErr         ....    0.1000
 Fernandez-Rico         CNVRico         .... off

SCF Procedure:
 Maximum # iterations   MaxIter         ....   125
 SCF integral mode      SCFMode         .... Conventional
 Integral Buffer length BufferLength    .... 1048576
 Integral index format  IndFormat       ....     0
 Integral value format  ValFormat       ....     0
 Integral Storage       Thresh          ....  1.000e-08 Eh

Convergence Tolerance:
 Convergence Check Mode ConvCheckMode   .... Total+1el-Energy
 Energy Change          TolE            ....  1.000e-06 Eh
 1-El. energy change                    ....  1.000e-03 Eh
 Orbital Gradient       TolG            ....  5.000e-05
 Orbital Rotation angle TolX            ....  5.000e-05
 DIIS Error             TolErr          ....  1.000e-06


Diagonalization of the overlap matrix:
Smallest eigenvalue                        ... 1.695e-01
Time for diagonalization                   ...    0.003 sec
Threshold for overlap eigenvalues          ... 1.000e-08
Number of eigenvalues below threshold      ... 0
Time for construction of square roots      ...    0.001 sec
Total time needed                          ...    0.004 sec

-------------------------------
INITIAL GUESS: EXTENDED HUECKEL
-------------------------------
EHT matrix was read from disk
EHT matrix was diagonalized
Initial density was built
                      ------------------
                      INITIAL GUESS DONE
                      ------------------

 InCore treatment chosen:
   Memory dedicated               ...    1024 MB
   Memory needed                  ...      0 MB
   Number of tiny    integrals    ...       0
   Number of small   integrals    ...       0
   Number of regular integrals    ...    7392

--------------
SCF ITERATIONS
--------------
ITER       Energy         Delta-E        Max-DP      RMS-DP      [F,P]     Damp
  0    -17.9376941482   0.000000000000 0.04214120  0.00145275  0.1152522 0.7000
  1    -17.9796560265  -0.041961878315 0.03985133  0.00136773  0.0786320 0.7000
                               ***Turning on DIIS***
  2    -18.0106908305  -0.031034804001 0.10120315  0.00350816  0.0485413 0.0000
  3    -18.0861563536  -0.075465523089 0.02121320  0.00072624  0.0220837 0.0000
  4    -18.0779956115   0.008160742039 0.01127454  0.00049664  0.0073795 0.0000
  5    -18.0944976015  -0.016501989964 0.00802748  0.00033553  0.0042556 0.0000
  6    -18.0973675329  -0.002869931433 0.00633277  0.00023779  0.0023010 0.0000
                      *** Initiating the SOSCF procedure ***
                           *** Shutting down DIIS ***
                      *** Re-Reading the Fockian *** 
                      *** Removing any level shift *** 
ITER      Energy       Delta-E        Grad      Rot      Max-DP    RMS-DP
  7    -18.09301999   0.0043475472  0.003038  0.003038  0.003789  0.000134
  8    -18.09025136   0.0027686283  0.000820  0.002264  0.001902  0.000062
  9    -18.09026610  -0.0000147453  0.000364  0.002231  0.002155  0.000066
 10    -18.09027153  -0.0000054269  0.000026  0.000061  0.000109  0.000004
                 **** Energy Check signals convergence ****
              ***Rediagonalizing the Fockian in SOSCF/NRSCF***

               *****************************************************
               *                     SUCCESS                       *
               *           SCF CONVERGED AFTER  11 CYCLES          *
               *****************************************************


----------------
TOTAL SCF ENERGY
----------------

Total Energy       :          -18.09027158 Eh            -492.26132 eV

Components:
Nuclear Repulsion  :          812.19358217 Eh           22100.91096 eV
Electronic Energy  :         -830.28385375 Eh          -22593.17228 eV

One Electron Energy:        -1570.11734977 Eh          -42725.06519 eV
Two Electron Energy:          739.83349602 Eh           20131.89291 eV


---------------
SCF CONVERGENCE
---------------

  Last Energy change         ...   -4.7941e-08  Tolerance :   1.0000e-06
  Last MAX-Density change    ...    3.9996e-05  Tolerance :   1.0000e-05
  Last RMS-Density change    ...    1.3155e-06  Tolerance :   1.0000e-06
  Last Orbital Gradient      ...    8.4896e-06  Tolerance :   5.0000e-05
  Last Orbital Rotation      ...    2.3822e-05  Tolerance :   5.0000e-05

             **** THE GBW FILE WAS UPDATED (/Users/mattyjones/GoogleDrive/Boise/Code/MorphCT/tests/output_EZ/donor_polymer/chromophores/input_orca/pair/00002-00004.gbw) ****
             **** DENSITY FILE WAS UPDATED (/Users/mattyjones/GoogleDrive/Boise/Code/MorphCT/tests/output_EZ/donor_polymer/chromophores/input_orca/pair/00002-00004.scfp.tmp) ****
             **** ENERGY FILE WAS UPDATED (/Users/mattyjones/GoogleDrive/Boise/Code/MorphCT/tests/output_EZ/donor_polymer/chromophores/input_orca/pair/00002-00004.en.tmp) ****
----------------
ORBITAL ENERGIES
----------------

  NO   OCC          E(Eh)            E(eV) 
   0   2.0000      -1.564023       -42.5592 
   1   2.0000      -1.555944       -42.3394 
   2   2.0000      -1.421306       -38.6757 
   3   2.0000      -1.383217       -37.6392 
   4   2.0000      -1.297102       -35.2959 
   5   2.0000      -1.283614       -34.9289 
   6   2.0000      -1.182641       -32.1813 
   7   2.0000      -1.165027       -31.7020 
   8   2.0000      -1.112798       -30.2808 
   9   2.0000      -1.109099       -30.1801 
  10   2.0000      -1.054613       -28.6975 
  11   2.0000      -1.034099       -28.1393 
  12   2.0000      -0.988167       -26.8894 
  13   2.0000      -0.974084       -26.5062 
  14   2.0000      -0.911462       -24.8021 
  15   2.0000      -0.908516       -24.7220 
  16   2.0000      -0.847339       -23.0573 
  17   2.0000      -0.844810       -22.9884 
  18   2.0000      -0.821327       -22.3495 
  19   2.0000      -0.819354       -22.2958 
  20   2.0000      -0.783058       -21.3081 
  21   2.0000      -0.769147       -20.9296 
  22   2.0000      -0.734112       -19.9762 
  23   2.0000      -0.729448       -19.8493 
  24   2.0000      -0.709289       -19.3007 
  25   2.0000      -0.685104       -18.6426 
  26   2.0000      -0.683111       -18.5884 
  27   2.0000      -0.676929       -18.4202 
  28   2.0000      -0.650687       -17.7061 
  29   2.0000      -0.623465       -16.9653 
  30   2.0000      -0.616683       -16.7808 
  31   2.0000      -0.604282       -16.4433 
  32   2.0000      -0.593251       -16.1432 
  33   2.0000      -0.591542       -16.0967 
  34   2.0000      -0.583022       -15.8648 
  35   2.0000      -0.577820       -15.7233 
  36   2.0000      -0.575120       -15.6498 
  37   2.0000      -0.568895       -15.4804 
  38   2.0000      -0.553342       -15.0572 
  39   2.0000      -0.549260       -14.9461 
  40   2.0000      -0.538180       -14.6446 
  41   2.0000      -0.531726       -14.4690 
  42   2.0000      -0.529457       -14.4073 
  43   2.0000      -0.514955       -14.0126 
  44   2.0000      -0.507527       -13.8105 
  45   2.0000      -0.507254       -13.8031 
  46   2.0000      -0.497133       -13.5277 
  47   2.0000      -0.496289       -13.5047 
  48   2.0000      -0.494815       -13.4646 
  49   2.0000      -0.489777       -13.3275 
  50   2.0000      -0.476263       -12.9598 
  51   2.0000      -0.475380       -12.9357 
  52   2.0000      -0.469028       -12.7629 
  53   2.0000      -0.462068       -12.5735 
  54   2.0000      -0.452653       -12.3173 
  55   2.0000      -0.448240       -12.1972 
  56   2.0000      -0.437565       -11.9067 
  57   2.0000      -0.437476       -11.9043 
  58   2.0000      -0.356869        -9.7109 
  59   2.0000      -0.355267        -9.6673 
  60   2.0000      -0.306018        -8.3272 
  61   2.0000      -0.305173        -8.3042 
  62   0.0000       0.006910         0.1880 
  63   0.0000       0.006943         0.1889 
  64   0.0000       0.054653         1.4872 
  65   0.0000       0.068421         1.8618 
  66   0.0000       0.074756         2.0342 
  67   0.0000       0.081602         2.2205 
  68   0.0000       0.083325         2.2674 
  69   0.0000       0.088327         2.4035 
  70   0.0000       0.099444         2.7060 
  71   0.0000       0.105235         2.8636 
  72   0.0000       0.106054         2.8859 
  73   0.0000       0.106520         2.8986 
  74   0.0000       0.119886         3.2623 
  75   0.0000       0.122001         3.3198 
  76   0.0000       0.142583         3.8799 
  77   0.0000       0.143654         3.9090 
  78   0.0000       0.154181         4.1955 
  79   0.0000       0.159336         4.3358 
  80   0.0000       0.164914         4.4875 
  81   0.0000       0.165638         4.5072 
  82   0.0000       0.171998         4.6803 
  83   0.0000       0.172234         4.6867 
  84   0.0000       0.203248         5.5307 
  85   0.0000       0.205172         5.5830 
  86   0.0000       0.225424         6.1341 
  87   0.0000       0.230019         6.2591 
  88   0.0000       0.231697         6.3048 
  89   0.0000       0.233006         6.3404 
  90   0.0000       0.236017         6.4224 
  91   0.0000       0.236449         6.4341 
  92   0.0000       0.238286         6.4841 
  93   0.0000       0.238529         6.4907 
  94   0.0000       0.239390         6.5141 
  95   0.0000       0.240064         6.5325 
  96   0.0000       0.240845         6.5537 
  97   0.0000       0.242718         6.6047 
  98   0.0000       0.243831         6.6350 
  99   0.0000       0.244173         6.6443 
 100   0.0000       0.245799         6.6885 
 101   0.0000       0.253656         6.9023 
 102   0.0000       0.259248         7.0545 
 103   0.0000       0.265695         7.2299 
 104   0.0000       0.266022         7.2388 
 105   0.0000       0.269612         7.3365 
 106   0.0000       0.273801         7.4505 
 107   0.0000       0.283043         7.7020 
 108   0.0000       0.298741         8.1291 
 109   0.0000       0.305736         8.3195 
 110   0.0000       0.309264         8.4155 
 111   0.0000       0.309661         8.4263 
 112   0.0000       0.340858         9.2752 
 113   0.0000       0.341214         9.2849 
 114   0.0000       0.346308         9.4235 
 115   0.0000       0.364657         9.9228 
 116   0.0000       0.413800        11.2601 
 117   0.0000       0.416263        11.3271 
 118   0.0000       0.426861        11.6155 
 119   0.0000       0.427420        11.6307 
-------
TIMINGS
-------

Total SCF time: 0 days 0 hours 0 min 0 sec 

Total time                  ....       0.198 sec
Sum of individual times     ....       0.106 sec  ( 53.4%)

Fock matrix formation       ....       0.048 sec  ( 24.0%)
Diagonalization             ....       0.024 sec  ( 12.0%)
Density matrix formation    ....       0.005 sec  (  2.8%)
Population analysis         ....       0.000 sec  (  0.0%)
Initial guess               ....       0.003 sec  (  1.4%)
Orbital Transformation      ....       0.000 sec  (  0.0%)
Orbital Orthonormalization  ....       0.000 sec  (  0.0%)
DIIS solution               ....       0.020 sec  ( 10.2%)
SOSCF solution              ....       0.006 sec  (  2.9%)

-------------------------   --------------------
FINAL SINGLE POINT ENERGY       -18.090271577576
-------------------------   --------------------


                            ***************************************
                            *     ORCA property calculations      *
                            ***************************************

                                    ---------------------
                                    Active property flags
                                    ---------------------
   (+) Dipole Moment


------------------------------------------------------------------------------
                       ORCA ELECTRIC PROPERTIES CALCULATION
------------------------------------------------------------------------------

Dipole Moment Calculation                       ... on
Quadrupole Moment Calculation                   ... off
Polarizability Calculation                      ... off
GBWName                                         ... /Users/mattyjones/GoogleDrive/Boise/Code/MorphCT/tests/output_EZ/donor_polymer/chromophores/input_orca/pair/00002-00004.gbw
Electron density file                           ... /Users/mattyjones/GoogleDrive/Boise/Code/MorphCT/tests/output_EZ/donor_polymer/chromophores/input_orca/pair/00002-00004.scfp.tmp

-------------
DIPOLE MOMENT
-------------
                                X             Y             Z
Electronic contribution:    196.57723     156.39075      97.98598
Nuclear contribution   :   -105.44546     -84.85521     -52.50346
                        -----------------------------------------
Total Dipole Moment    :     91.13177      71.53554      45.48252
                        -----------------------------------------
Magnitude (a.u.)       :    124.46282
Magnitude (Debye)      :    316.35934


Timings for individual modules:

Sum of individual times         ...        0.289 sec (=   0.005 min)
STO integral calculation        ...        0.054 sec (=   0.001 min)  18.6 %
SCF iterations                  ...        0.235 sec (=   0.004 min)  81.4 %
                             ****ORCA TERMINATED NORMALLY****
TOTAL RUN TIME: 0 days 0 hours 0 minutes 0 seconds 596 msec

