
                                 *****************
                                 * O   R   C   A *
                                 *****************

           --- An Ab Initio, DFT and Semiempirical electronic structure package ---

                  #######################################################
                  #                        -***-                        #
                  #  Department of molecular theory and spectroscopy    #
                  #              Directorship: Frank Neese              #
                  # Max Planck Institute for Chemical Energy Conversion #
                  #                  D-45470 Muelheim/Ruhr              #
                  #                       Germany                       #
                  #                                                     #
                  #                  All rights reserved                #
                  #                        -***-                        #
                  #######################################################


                         Program Version 3.0.3 - RELEASE   -


 With contributions from (in alphabetic order):
   Ute Becker             : Parallelization
   Dmytro Bykov           : SCF Hessian
   Dmitry Ganyushin       : Spin-Orbit,Spin-Spin,Magnetic field MRCI
   Andreas Hansen         : Spin unrestricted coupled pair/coupled cluster methods
   Dimitrios Liakos       : Extrapolation schemes; parallel MDCI
   Robert Izsak           : Overlap fitted RIJCOSX, COSX-SCS-MP3
   Christian Kollmar      : KDIIS, OOCD, Brueckner-CCSD(T), CCSD density
   Simone Kossmann        : Meta GGA functionals, TD-DFT gradient, OOMP2, MP2 Hessian
   Taras Petrenko         : DFT Hessian,TD-DFT gradient, ASA and ECA modules, normal mode analysis, Resonance Raman, ABS, FL, XAS/XES, NRVS
   Christoph Reimann      : Effective Core Potentials
   Michael Roemelt        : Restricted open shell CIS
   Christoph Riplinger    : Improved optimizer, TS searches, QM/MM, DLPNO-CCSD
   Barbara Sandhoefer     : DKH picture change effects
   Igor Schapiro          : Molecular dynamics
   Kantharuban Sivalingam : CASSCF convergence, NEVPT2
   Boris Wezisla          : Elementary symmetry handling
   Frank Wennmohs         : Technical directorship


 We gratefully acknowledge several colleagues who have allowed us to
 interface, adapt or use parts of their codes:
   Stefan Grimme, W. Hujo, H. Kruse, T. Risthaus : VdW corrections, initial TS optimization,
                                                   DFT functionals, gCP
   Ed Valeev                                     : LibInt (2-el integral package), F12 methods
   Garnet Chan, S. Sharma, R. Olivares           : DMRG
   Ulf Ekstrom                                   : XCFun DFT Library
   Mihaly Kallay                                 : mrcc  (arbitrary order and MRCC methods)
   Andreas Klamt, Michael Diedenhofen            : otool_cosmo (COSMO solvation model)
   Frank Weinhold                                : gennbo (NPA and NBO analysis)
   Christopher J. Cramer and Donald G. Truhlar   : smd solvation model


 Your calculation uses the libint2 library for the computation of 2-el integrals
 For citations please refer to: http://libint.valeyev.net

 This ORCA versions uses:
   CBLAS   interface :  Fast vector & matrix operations
   LAPACKE interface :  Fast linear algebra routines
   SCALAPACK package :  Parallel linear algebra routines


leaving
================================================================================
                                        WARNINGS
                       Please study these warnings very carefully!
================================================================================
Now building the actual basis set

WARNING: Direct SCF is incompatible with Method<>HF and Method<>DFT
  ===> : conventional SCF is chosen

WARNING: The NDO methods need Guess=HUECKEL or Guess=HCORE or Guess=MOREAD
  ===> : Guess is set to Hueckel

WARNING: The NDO methods need %rel::SOCType==1
  ===> : %rel::SOCType is set to 1

WARNING: The NDO methods cannot have frozencore=1
  ===> : %method FrozenCore=0 end


INFO   : the flag for use of LIBINT has been found!

================================================================================
                                       INPUT FILE
================================================================================
NAME = /Users/mattyjones/GoogleDrive/Boise/Code/MorphCT/tests/output_EZ/donor_polymer/chromophores/input_orca/pair/00009-00019.inp
|  1> # ================================================================
|  2> # Orca input file made by Matty Jones
|  3> # ================================================================
|  4> ! ZINDO/S 
|  5> ! NOPOP
|  6> ! NOMOPRINT
|  7> * xyz 0   1
|  8>  C  -22.06255  1.12293  4.56624
|  9>  C  -20.90245  1.88202  4.72704
| 10>  C  -20.04105  1.41818  5.76968
| 11>  C  -20.52339  0.28712  6.43554
| 12>  S  -21.96993  -0.07442  5.70942
| 13>  H  -20.71965  2.84867  4.15324
| 14>  C  -18.68884  2.26454  5.99940
| 15>  C  -17.86908  2.61342  4.54091
| 16>  C  -16.59409  3.71482  4.69667
| 17>  H  -16.91927  4.41721  5.56671
| 18>  H  -16.65235  4.34377  3.71554
| 19>  H  -17.43371  1.61980  4.15104
| 20>  H  -18.60774  3.03913  3.77178
| 21>  H  -18.92383  3.26723  6.52080
| 22>  H  -17.94494  1.66355  6.66675
| 23>  C  -15.02437  3.36707  4.92802
| 24>  C  -14.09874  3.40233  3.51105
| 25>  C  -13.54866  4.95097  3.12568
| 26>  H  -14.38279  5.72063  3.35120
| 27>  H  -13.28070  4.98928  2.00065
| 28>  H  -12.61192  5.19479  3.75873
| 29>  H  -13.17963  2.72552  3.66715
| 30>  H  -14.73322  3.00411  2.63891
| 31>  H  -14.92008  2.31396  5.39155
| 32>  H  -14.56730  4.14080  5.65761
| 33>  C  22.01816  -1.66083  -6.40193
| 34>  C  20.98693  -2.49846  -5.97431
| 35>  C  19.91068  -1.81559  -5.32652
| 36>  C  20.09298  -0.43176  -5.24220
| 37>  S  21.55562  -0.13019  -5.96343
| 38>  H  21.00354  -3.62844  -6.13622
| 39>  C  18.73566  -2.81514  -4.84707
| 40>  C  17.11529  -2.63668  -5.27223
| 41>  C  16.06469  -1.79276  -4.28338
| 42>  H  16.64254  -0.93853  -3.77050
| 43>  H  15.22121  -1.34623  -4.93443
| 44>  H  17.10712  -2.10656  -6.30227
| 45>  H  16.68815  -3.70191  -5.41176
| 46>  H  18.73217  -2.81423  -3.67491
| 47>  H  19.00138  -3.90871  -5.17083
| 48>  C  15.43572  -2.78512  -3.14894
| 49>  C  14.09823  -3.72419  -3.59446
| 50>  C  14.45012  -5.29063  -4.10999
| 51>  H  15.18559  -5.78168  -3.36345
| 52>  H  14.92379  -5.25851  -5.16388
| 53>  H  13.46949  -5.90496  -4.14502
| 54>  H  13.55163  -3.18439  -4.45326
| 55>  H  13.40012  -3.80012  -2.68083
| 56>  H  16.25975  -3.51900  -2.79528
| 57>  H  15.10665  -2.14366  -2.24283
| 58>  H  -22.83910  1.27899  3.86181
| 59>  H  -20.06124  -0.23077  7.23667
| 60>  H  22.90918  -1.94359  -6.90166
| 61>  H  19.43424  0.27625  -4.80818
| 62> *
| 63> 
| 64>                          ****END OF INPUT****
================================================================================

                       ****************************
                       * Single Point Calculation *
                       ****************************

---------------------------------
CARTESIAN COORDINATES (ANGSTROEM)
---------------------------------
  C    -22.062550    1.122930    4.566240
  C    -20.902450    1.882020    4.727040
  C    -20.041050    1.418180    5.769680
  C    -20.523390    0.287120    6.435540
  S    -21.969930   -0.074420    5.709420
  H    -20.719650    2.848670    4.153240
  C    -18.688840    2.264540    5.999400
  C    -17.869080    2.613420    4.540910
  C    -16.594090    3.714820    4.696670
  H    -16.919270    4.417210    5.566710
  H    -16.652350    4.343770    3.715540
  H    -17.433710    1.619800    4.151040
  H    -18.607740    3.039130    3.771780
  H    -18.923830    3.267230    6.520800
  H    -17.944940    1.663550    6.666750
  C    -15.024370    3.367070    4.928020
  C    -14.098740    3.402330    3.511050
  C    -13.548660    4.950970    3.125680
  H    -14.382790    5.720630    3.351200
  H    -13.280700    4.989280    2.000650
  H    -12.611920    5.194790    3.758730
  H    -13.179630    2.725520    3.667150
  H    -14.733220    3.004110    2.638910
  H    -14.920080    2.313960    5.391550
  H    -14.567300    4.140800    5.657610
  C     22.018160   -1.660830   -6.401930
  C     20.986930   -2.498460   -5.974310
  C     19.910680   -1.815590   -5.326520
  C     20.092980   -0.431760   -5.242200
  S     21.555620   -0.130190   -5.963430
  H     21.003540   -3.628440   -6.136220
  C     18.735660   -2.815140   -4.847070
  C     17.115290   -2.636680   -5.272230
  C     16.064690   -1.792760   -4.283380
  H     16.642540   -0.938530   -3.770500
  H     15.221210   -1.346230   -4.934430
  H     17.107120   -2.106560   -6.302270
  H     16.688150   -3.701910   -5.411760
  H     18.732170   -2.814230   -3.674910
  H     19.001380   -3.908710   -5.170830
  C     15.435720   -2.785120   -3.148940
  C     14.098230   -3.724190   -3.594460
  C     14.450120   -5.290630   -4.109990
  H     15.185590   -5.781680   -3.363450
  H     14.923790   -5.258510   -5.163880
  H     13.469490   -5.904960   -4.145020
  H     13.551630   -3.184390   -4.453260
  H     13.400120   -3.800120   -2.680830
  H     16.259750   -3.519000   -2.795280
  H     15.106650   -2.143660   -2.242830
  H    -22.839100    1.278990    3.861810
  H    -20.061240   -0.230770    7.236670
  H     22.909180   -1.943590   -6.901660
  H     19.434240    0.276250   -4.808180

----------------------------
CARTESIAN COORDINATES (A.U.)
----------------------------
  NO LB      ZA    FRAG    MASS        X           Y           Z
   0 C     4.0000    0    12.011        -41.692177315944313          2.122030167564191          8.628943061756576
   1 C     4.0000    0    12.011        -39.499906027982270          3.556502378562474          8.932811024091112
   2 C     4.0000    0    12.011        -37.872095936222500          2.679971808604441         10.903115080362767
   3 C     4.0000    0    12.011        -38.783586439658073          0.542578167571470         12.161408123895571
   4 S     6.0000    0    32.060        -41.517150881420527         -0.140633418886420         10.789240183532673
   5 H     1.0000    0     1.008        -39.154464090701467          5.383206145917452          7.848486168447100
   6 C     4.0000    0    12.011        -35.316789360672843          4.279360419310032         11.337222967847156
   7 C     4.0000    0    12.011        -33.767667465129563          4.938648072912478          8.581076298784351
   8 C     4.0000    0    12.011        -31.358285541641305          7.019992436813344          8.875420041403926
   9 H     1.0000    0     1.008        -31.972786685869817          8.347317176018292         10.519557366960770
  10 H     1.0000    0     1.008        -31.468380986203552          8.208535688743115          7.021353039629767
  11 H     1.0000    0     1.008        -32.944937398204267          3.060978391725643          7.844328770952472
  12 H     1.0000    0     1.008        -35.163532571211832          5.743123385384094          7.127631237401499
  13 H     1.0000    0     1.008        -35.760856104882997          6.174169916531532         12.322526174073699
  14 H     1.0000    0     1.008        -33.911022089648824          3.143653910084698         12.598331703319506
  15 C     4.0000    0    12.011        -28.391944634702433          6.362840173742229          9.312608182486606
  16 C     4.0000    0    12.011        -26.642757433360906          6.429471917224292          6.634922942504210
  17 C     4.0000    0    12.011        -25.603256881613504          9.355977397260100          5.906679182274978
  18 H     1.0000    0     1.008        -27.179534141701239         10.810424013493929          6.332850219996899
  19 H     1.0000    0     1.008        -25.096885866767966          9.428372805450623          3.780680589829552
  20 H     1.0000    0     1.008        -23.833074822924111          9.816730423232780          7.102970311353826
  21 H     1.0000    0     1.008        -24.905891246412544          5.150486372525050          6.929909192009318
  22 H     1.0000    0     1.008        -27.841750870811261          5.676945176174171          4.986817192066130
  23 H     1.0000    0     1.008        -28.194865096195791          4.372750684848419         10.188552937343124
  24 H     1.0000    0     1.008        -27.528207510671049          7.824977975341118         10.691333472534213
  25 C     4.0000    0    12.011         41.608292372859552         -3.138513855000432        -12.097894428534479
  26 C     4.0000    0    12.011         39.659550091775934         -4.721405156556891        -11.289809739147072
  27 C     4.0000    0    12.011         37.625732340143188         -3.430967871486085        -10.065664046854225
  28 C     4.0000    0    12.011         37.970229414357036         -0.815908155581840         -9.906322339241987
  29 S     6.0000    0    32.060         40.734218446875616         -0.246023445375208        -11.269249518810009
  30 H     1.0000    0     1.008         39.690938442860364         -6.856757893365226        -11.595775297490263
  31 C     4.0000    0    12.011         35.405266338263040         -5.319843628647073         -9.159634851945682
  32 C     4.0000    0    12.011         32.343210802641060         -4.982603102787486         -9.963070815043642
  33 C     4.0000    0    12.011         30.357864526343391         -3.387825423848663         -8.094415127515612
  34 H     1.0000    0     1.008         31.449842772829790         -1.773564668469112         -7.125212387950079
  35 H     1.0000    0     1.008         28.763918326903493         -2.544006013268806         -9.324721327005042
  36 H     1.0000    0     1.008         32.327771740126920         -3.980821484673152        -11.909564322027887
  37 H     1.0000    0     1.008         31.536033181797936         -6.995596072424420        -10.226744302509672
  38 H     1.0000    0     1.008         35.398671194055652         -5.318123977865204         -6.944573466808547
  39 H     1.0000    0     1.008         35.907404366568592         -7.386391436919336         -9.771452585064026
  40 C     4.0000    0    12.011         29.169283479890943         -5.263114050106757         -5.950634212149986
  41 C     4.0000    0    12.011         26.641793673032605         -7.037699170688186         -6.792544999334583
  42 C     4.0000    0    12.011         27.306769402298158         -9.997841775907792         -7.766755513155005
  43 H     1.0000    0     1.008         28.696606282013217        -10.925791793969822         -6.355999365137434
  44 H     1.0000    0     1.008         28.201875980152636         -9.937143772486241         -9.758318988433272
  45 H     1.0000    0     1.008         25.453647263590963        -11.158757231759633         -7.832952619626266
  46 H     1.0000    0     1.008         25.608869368231250         -6.017625003597495         -8.415441803146154
  47 H     1.0000    0     1.008         25.322556961680842         -7.181186076036827         -5.066034511600109
  48 H     1.0000    0     1.008         30.726474506026072         -6.649946265268885         -5.282313667627396
  49 H     1.0000    0     1.008         28.547431301001478         -4.050930324241630         -4.238334464942601
  50 H     1.0000    0     1.008        -43.159644145240854          2.416940828023942          7.297763281238430
  51 H     1.0000    0     1.008        -37.910249506866371         -0.436092099925007         13.675324421563905
  52 H     1.0000    0     1.008         43.292076152706059         -3.672852816628005        -13.042247269438946
  53 H     1.0000    0     1.008         36.725391220897741          0.522036844495746         -9.086143402597484

--------------------------------
INTERNAL COORDINATES (ANGSTROEM)
--------------------------------
 C      0   0   0   0.000000     0.000     0.000
 C      1   0   0   1.395674     0.000     0.000
 C      2   1   0   1.429775   114.101     0.000
 C      3   2   1   1.398327   113.693     0.000
 S      1   2   3   1.658037   105.480     0.000
 H      2   1   3   1.138892   122.480   186.334
 C      3   2   1   1.611697   116.043   180.201
 C      7   3   2   1.709069   112.830   313.490
 C      8   7   3   1.692023   114.567   170.141
 H      9   8   7   1.164501   104.536   328.765
 H      9   8   7   1.166871   103.641   217.030
 H      8   7   3   1.152747   107.087   289.769
 H      8   7   3   1.148220   109.801    48.734
 H      7   3   2   1.154325   110.471    74.241
 H      7   3   2   1.166161   110.251   194.287
 C      9   8   7   1.624338   127.009    93.791
 C     16   9   8   1.692879   113.874    98.259
 C     17  16   9   1.688012   112.854    85.153
 H     18  17  16   1.157155   109.318   320.592
 H     18  17  16   1.157136   109.135   200.810
 H     18  17  16   1.156582   109.413    80.731
 H     17  16   9   1.152043   108.094   204.595
 H     17  16   9   1.149684   109.025   323.972
 H     16   9   8   1.155326   109.848   337.270
 H     16   9   8   1.157529   109.163   218.161
 C     21  18  17  36.735282   124.944    90.649
 C     26  21  18   1.395678    47.989   286.591
 C     27  26  21   1.429775   114.102   343.630
 C     28  27  26   1.398331   113.693     0.000
 S     26  21  18   1.658036    59.442   124.977
 H     27  26  21   1.141642   122.672   163.260
 C     28  27  26   1.615439   112.735   179.934
 C     32  28  27   1.684698   123.997   234.489
 C     33  32  28   1.671462   120.580   267.116
 H     34  33  32   1.151810   108.817    33.386
 H     34  33  32   1.155298   108.703   152.337
 H     33  32  28   1.158480   106.239    28.691
 H     33  32  28   1.156128   106.751   143.950
 H     32  28  27   1.172166   107.366   112.745
 H     32  28  27   1.171035   109.312   358.030
 C     34  33  32   1.633198   110.256   273.221
 C     41  34  33   1.693877   117.274   276.740
 C     42  41  34   1.686218   115.508    95.320
 H     43  42  41   1.157311   109.242    47.273
 H     43  42  41   1.155889   109.783   286.762
 H     43  42  41   1.157698   108.992   166.796
 H     42  41  34   1.152256   108.112   334.445
 H     42  41  34   1.152321   107.840   216.092
 H     41  34  33   1.158741   108.842    38.172
 H     41  34  33   1.157926   108.445   155.798
 H      1   2   3   1.060003   127.260   180.000
 H      4   3   2   1.060001   127.207   180.000
 H     26  21  18   1.060000   166.555     1.323
 H     29  28  27   1.059995   127.206   180.000

---------------------------
INTERNAL COORDINATES (A.U.)
---------------------------
 C      0   0   0   0.000000     0.000     0.000
 C      1   0   0   2.637442     0.000     0.000
 C      2   1   0   2.701883   114.101     0.000
 C      3   2   1   2.642455   113.693     0.000
 S      1   2   3   3.133235   105.480     0.000
 H      2   1   3   2.152194   122.480   186.334
 C      3   2   1   3.045667   116.043   180.201
 C      7   3   2   3.229672   112.830   313.490
 C      8   7   3   3.197461   114.567   170.141
 H      9   8   7   2.200589   104.536   328.765
 H      9   8   7   2.205067   103.641   217.030
 H      8   7   3   2.178377   107.087   289.769
 H      8   7   3   2.169821   109.801    48.734
 H      7   3   2   2.181358   110.471    74.241
 H      7   3   2   2.203726   110.251   194.287
 C      9   8   7   3.069554   127.009    93.791
 C     16   9   8   3.199077   113.874    98.259
 C     17  16   9   3.189880   112.854    85.153
 H     18  17  16   2.186707   109.318   320.592
 H     18  17  16   2.186669   109.135   200.810
 H     18  17  16   2.185624   109.413    80.731
 H     17  16   9   2.177045   108.094   204.595
 H     17  16   9   2.172587   109.025   323.972
 H     16   9   8   2.183249   109.848   337.270
 H     16   9   8   2.187412   109.163   218.161
 C     21  18  17  69.419623   124.944    90.649
 C     26  21  18   2.637450    47.989   286.591
 C     27  26  21   2.701884   114.102   343.630
 C     28  27  26   2.642462   113.693     0.000
 S     26  21  18   3.133234    59.442   124.977
 H     27  26  21   2.157390   122.672   163.260
 C     28  27  26   3.052738   112.735   179.934
 C     32  28  27   3.183618   123.997   234.489
 C     33  32  28   3.158606   120.580   267.116
 H     34  33  32   2.176605   108.817    33.386
 H     34  33  32   2.183197   108.703   152.337
 H     33  32  28   2.189210   106.239    28.691
 H     33  32  28   2.184765   106.751   143.950
 H     32  28  27   2.215072   107.366   112.745
 H     32  28  27   2.212935   109.312   358.030
 C     34  33  32   3.086297   110.256   273.221
 C     41  34  33   3.200964   117.274   276.740
 C     42  41  34   3.186491   115.508    95.320
 H     43  42  41   2.187000   109.242    47.273
 H     43  42  41   2.184313   109.783   286.762
 H     43  42  41   2.187731   108.992   166.796
 H     42  41  34   2.177448   108.112   334.445
 H     42  41  34   2.177570   107.840   216.092
 H     41  34  33   2.189703   108.842    38.172
 H     41  34  33   2.188164   108.445   155.798
 H      1   2   3   2.003115   127.260   180.000
 H      4   3   2   2.003111   127.207   180.000
 H     26  21  18   2.003110   166.555     1.323
 H     29  28  27   2.003101   127.206   180.000

----------------------------
SLATER BASIS SET DIM= 120
----------------------------
  0 C     2 shells
 l=0 nsto= 1
    2       1.625000000000        1.000000000000
 l=1 nsto= 1
    2       1.625000000000        1.000000000000
  1 C     2 shells
 l=0 nsto= 1
    2       1.625000000000        1.000000000000
 l=1 nsto= 1
    2       1.625000000000        1.000000000000
  2 C     2 shells
 l=0 nsto= 1
    2       1.625000000000        1.000000000000
 l=1 nsto= 1
    2       1.625000000000        1.000000000000
  3 C     2 shells
 l=0 nsto= 1
    2       1.625000000000        1.000000000000
 l=1 nsto= 1
    2       1.625000000000        1.000000000000
  4 S     2 shells
 l=0 nsto= 1
    3       1.925000000000        1.000000000000
 l=1 nsto= 1
    3       1.925000000000        1.000000000000
  5 H     1 shells
 l=0 nsto= 1
    1       1.200000000000        1.000000000000
  6 C     2 shells
 l=0 nsto= 1
    2       1.625000000000        1.000000000000
 l=1 nsto= 1
    2       1.625000000000        1.000000000000
  7 C     2 shells
 l=0 nsto= 1
    2       1.625000000000        1.000000000000
 l=1 nsto= 1
    2       1.625000000000        1.000000000000
  8 C     2 shells
 l=0 nsto= 1
    2       1.625000000000        1.000000000000
 l=1 nsto= 1
    2       1.625000000000        1.000000000000
  9 H     1 shells
 l=0 nsto= 1
    1       1.200000000000        1.000000000000
 10 H     1 shells
 l=0 nsto= 1
    1       1.200000000000        1.000000000000
 11 H     1 shells
 l=0 nsto= 1
    1       1.200000000000        1.000000000000
 12 H     1 shells
 l=0 nsto= 1
    1       1.200000000000        1.000000000000
 13 H     1 shells
 l=0 nsto= 1
    1       1.200000000000        1.000000000000
 14 H     1 shells
 l=0 nsto= 1
    1       1.200000000000        1.000000000000
 15 C     2 shells
 l=0 nsto= 1
    2       1.625000000000        1.000000000000
 l=1 nsto= 1
    2       1.625000000000        1.000000000000
 16 C     2 shells
 l=0 nsto= 1
    2       1.625000000000        1.000000000000
 l=1 nsto= 1
    2       1.625000000000        1.000000000000
 17 C     2 shells
 l=0 nsto= 1
    2       1.625000000000        1.000000000000
 l=1 nsto= 1
    2       1.625000000000        1.000000000000
 18 H     1 shells
 l=0 nsto= 1
    1       1.200000000000        1.000000000000
 19 H     1 shells
 l=0 nsto= 1
    1       1.200000000000        1.000000000000
 20 H     1 shells
 l=0 nsto= 1
    1       1.200000000000        1.000000000000
 21 H     1 shells
 l=0 nsto= 1
    1       1.200000000000        1.000000000000
 22 H     1 shells
 l=0 nsto= 1
    1       1.200000000000        1.000000000000
 23 H     1 shells
 l=0 nsto= 1
    1       1.200000000000        1.000000000000
 24 H     1 shells
 l=0 nsto= 1
    1       1.200000000000        1.000000000000
 25 C     2 shells
 l=0 nsto= 1
    2       1.625000000000        1.000000000000
 l=1 nsto= 1
    2       1.625000000000        1.000000000000
 26 C     2 shells
 l=0 nsto= 1
    2       1.625000000000        1.000000000000
 l=1 nsto= 1
    2       1.625000000000        1.000000000000
 27 C     2 shells
 l=0 nsto= 1
    2       1.625000000000        1.000000000000
 l=1 nsto= 1
    2       1.625000000000        1.000000000000
 28 C     2 shells
 l=0 nsto= 1
    2       1.625000000000        1.000000000000
 l=1 nsto= 1
    2       1.625000000000        1.000000000000
 29 S     2 shells
 l=0 nsto= 1
    3       1.925000000000        1.000000000000
 l=1 nsto= 1
    3       1.925000000000        1.000000000000
 30 H     1 shells
 l=0 nsto= 1
    1       1.200000000000        1.000000000000
 31 C     2 shells
 l=0 nsto= 1
    2       1.625000000000        1.000000000000
 l=1 nsto= 1
    2       1.625000000000        1.000000000000
 32 C     2 shells
 l=0 nsto= 1
    2       1.625000000000        1.000000000000
 l=1 nsto= 1
    2       1.625000000000        1.000000000000
 33 C     2 shells
 l=0 nsto= 1
    2       1.625000000000        1.000000000000
 l=1 nsto= 1
    2       1.625000000000        1.000000000000
 34 H     1 shells
 l=0 nsto= 1
    1       1.200000000000        1.000000000000
 35 H     1 shells
 l=0 nsto= 1
    1       1.200000000000        1.000000000000
 36 H     1 shells
 l=0 nsto= 1
    1       1.200000000000        1.000000000000
 37 H     1 shells
 l=0 nsto= 1
    1       1.200000000000        1.000000000000
 38 H     1 shells
 l=0 nsto= 1
    1       1.200000000000        1.000000000000
 39 H     1 shells
 l=0 nsto= 1
    1       1.200000000000        1.000000000000
 40 C     2 shells
 l=0 nsto= 1
    2       1.625000000000        1.000000000000
 l=1 nsto= 1
    2       1.625000000000        1.000000000000
 41 C     2 shells
 l=0 nsto= 1
    2       1.625000000000        1.000000000000
 l=1 nsto= 1
    2       1.625000000000        1.000000000000
 42 C     2 shells
 l=0 nsto= 1
    2       1.625000000000        1.000000000000
 l=1 nsto= 1
    2       1.625000000000        1.000000000000
 43 H     1 shells
 l=0 nsto= 1
    1       1.200000000000        1.000000000000
 44 H     1 shells
 l=0 nsto= 1
    1       1.200000000000        1.000000000000
 45 H     1 shells
 l=0 nsto= 1
    1       1.200000000000        1.000000000000
 46 H     1 shells
 l=0 nsto= 1
    1       1.200000000000        1.000000000000
 47 H     1 shells
 l=0 nsto= 1
    1       1.200000000000        1.000000000000
 48 H     1 shells
 l=0 nsto= 1
    1       1.200000000000        1.000000000000
 49 H     1 shells
 l=0 nsto= 1
    1       1.200000000000        1.000000000000
 50 H     1 shells
 l=0 nsto= 1
    1       1.200000000000        1.000000000000
 51 H     1 shells
 l=0 nsto= 1
    1       1.200000000000        1.000000000000
 52 H     1 shells
 l=0 nsto= 1
    1       1.200000000000        1.000000000000
 53 H     1 shells
 l=0 nsto= 1
    1       1.200000000000        1.000000000000
------------------------------------------------------------------------------
                           ORCA NDO INTEGRAL CALCULATION
------------------------------------------------------------------------------

--------------
NDO PARAMETERS
--------------

Gamma integral treatment              ... Mataga-Nishimoto
Nuclear repulsuion treatment          ... Direct (ZA*ZB/RAB)
Interaction factors:
s-s (sigma) =    1.0000
s-p (sigma) =    1.0000
s-d (sigma) =    1.0000
p-p (sigma) =    1.2670  p-p(pi) =    0.5850
p-d (sigma) =    1.0000  p-d(pi) =    1.0000
d-d (sigma) =    1.0000  d-d(pi) =    1.0000 d-d (delta) =    1.0000

fGamma parameter for Mataga-Nishimoto gamma integrals:    1.2000

--------------------------
Parameters for Element H :
--------------------------
 One-electron parameters (in eV)
  U(s)  =   -13.060000 Beta(s) =    12.000000 Neff(s) =     1.000000
 One-center electron repulsion parameters (in eV)
  G(s,s)=    12.850000
--------------------------
Parameters for Element C :
--------------------------
 One-electron parameters (in eV)
  U(s)  =   -50.870766 Beta(s) =    17.000000 Neff(s) =     2.000000
  U(p)  =   -41.599980 Beta(p) =    17.000000 Neff(p) =     2.000000 
 One-center electron repulsion parameters (in eV)
  G(s,s)=    11.110000
  G(s,p)=    11.110000 G(p,p)  =    11.110000
 Slater-Condon parameters (in eV)
 F2(p,p)=     4.5098 G1(s,p)=    6.8977
--------------------------
Parameters for Element S :
--------------------------
 One-electron parameters (in eV)
  U(s)  =   -69.509597 Beta(s) =    15.000000 Neff(s) =     2.000000
  U(p)  =   -60.725746 Beta(p) =    15.000000 Neff(p) =     4.000000 
 One-center electron repulsion parameters (in eV)
  G(s,s)=    10.090000
  G(s,p)=    10.090000 G(p,p)  =    10.090000
 Slater-Condon parameters (in eV)
 F2(p,p)=     4.5377 G1(s,p)=    3.0756

 Number of atoms                    ....   54
 Number of basis functions          ....  120

 Overlap integrals                  .... done
 One electron matrix                .... done
 Nuclear repulsion                  .... done
 Integral list                      .... done
 Electron-electron repulsion        .... done
-------------------------------------------------------------------------------
                                 ORCA SCF
-------------------------------------------------------------------------------

------------
SCF SETTINGS
------------
Hamiltonian:
 ZDO-Hamiltonian        Method          .... INDO


General Settings:
 Integral files         IntName         .... /Users/mattyjones/GoogleDrive/Boise/Code/MorphCT/tests/output_EZ/donor_polymer/chromophores/input_orca/pair/00009-00019
 Hartree-Fock type      HFTyp           .... RHF
 Total Charge           Charge          ....    0
 Multiplicity           Mult            ....    1
 Number of Electrons    NEL             ....  124
 Basis Dimension        Dim             ....  120
 Nuclear Repulsion      ENuc            ....    642.1488389036 Eh

Convergence Acceleration:
 DIIS                   CNVDIIS         .... on
   Start iteration      DIISMaxIt       ....    12
   Startup error        DIISStart       ....  0.200000
   # of expansion vecs  DIISMaxEq       ....     5
   Bias factor          DIISBfac        ....   1.050
   Max. coefficient     DIISMaxC        ....  10.000
 Newton-Raphson         CNVNR           .... off
 SOSCF                  CNVSOSCF        .... on
   Start iteration      SOSCFMaxIt      ....   150
   Startup grad/error   SOSCFStart      ....  0.003300
 Level Shifting         CNVShift        .... on
   Level shift para.    LevelShift      ....    0.2500
   Turn off err/grad.   ShiftErr        ....    0.0010
 Zerner damping         CNVZerner       .... off
 Static damping         CNVDamp         .... on
   Fraction old density DampFac         ....    0.7000
   Max. Damping (<1)    DampMax         ....    0.9800
   Min. Damping (>=0)   DampMin         ....    0.0000
   Turn off err/grad.   DampErr         ....    0.1000
 Fernandez-Rico         CNVRico         .... off

SCF Procedure:
 Maximum # iterations   MaxIter         ....   125
 SCF integral mode      SCFMode         .... Conventional
 Integral Buffer length BufferLength    .... 1048576
 Integral index format  IndFormat       ....     0
 Integral value format  ValFormat       ....     0
 Integral Storage       Thresh          ....  1.000e-08 Eh

Convergence Tolerance:
 Convergence Check Mode ConvCheckMode   .... Total+1el-Energy
 Energy Change          TolE            ....  1.000e-06 Eh
 1-El. energy change                    ....  1.000e-03 Eh
 Orbital Gradient       TolG            ....  5.000e-05
 Orbital Rotation angle TolX            ....  5.000e-05
 DIIS Error             TolErr          ....  1.000e-06


Diagonalization of the overlap matrix:
Smallest eigenvalue                        ... 1.697e-01
Time for diagonalization                   ...    0.004 sec
Threshold for overlap eigenvalues          ... 1.000e-08
Number of eigenvalues below threshold      ... 0
Time for construction of square roots      ...    0.001 sec
Total time needed                          ...    0.005 sec

-------------------------------
INITIAL GUESS: EXTENDED HUECKEL
-------------------------------
EHT matrix was read from disk
EHT matrix was diagonalized
Initial density was built
                      ------------------
                      INITIAL GUESS DONE
                      ------------------

 InCore treatment chosen:
   Memory dedicated               ...    1024 MB
   Memory needed                  ...      0 MB
   Number of tiny    integrals    ...       0
   Number of small   integrals    ...       0
   Number of regular integrals    ...    7392

--------------
SCF ITERATIONS
--------------
ITER       Energy         Delta-E        Max-DP      RMS-DP      [F,P]     Damp
  0    -21.7453595477   0.000000000000 0.04318628  0.00144483  0.1047394 0.7000
  1    -21.7870702394  -0.041710691639 0.04163946  0.00136064  0.0716140 0.7000
                               ***Turning on DIIS***
  2    -21.8179308514  -0.030860611975 0.10833349  0.00349177  0.0442656 0.0000
  3    -21.8991967941  -0.081265942697 0.01761730  0.00072169  0.0200419 0.0000
  4    -21.8840586755   0.015138118592 0.01340734  0.00049673  0.0073319 0.0000
  5    -21.9010126918  -0.016954016286 0.00938982  0.00033527  0.0043514 0.0000
  6    -21.9032339926  -0.002221300829 0.00698230  0.00023769  0.0025331 0.0000
                      *** Initiating the SOSCF procedure ***
                           *** Shutting down DIIS ***
                      *** Re-Reading the Fockian *** 
                      *** Removing any level shift *** 
ITER      Energy       Delta-E        Grad      Rot      Max-DP    RMS-DP
  7    -21.89911508   0.0041189108  0.003013  0.003013  0.004163  0.000133
  8    -21.89708771   0.0020273684  0.000803  0.002204  0.002072  0.000062
  9    -21.89710207  -0.0000143594  0.000352  0.002147  0.002314  0.000065
 10    -21.89710730  -0.0000052253  0.000030  0.000086  0.000142  0.000004
                 **** Energy Check signals convergence ****
              ***Rediagonalizing the Fockian in SOSCF/NRSCF***

               *****************************************************
               *                     SUCCESS                       *
               *           SCF CONVERGED AFTER  11 CYCLES          *
               *****************************************************


----------------
TOTAL SCF ENERGY
----------------

Total Energy       :          -21.89710735 Eh            -595.85058 eV

Components:
Nuclear Repulsion  :          642.14883890 Eh           17473.75826 eV
Electronic Energy  :         -664.04594625 Eh          -18069.60884 eV

One Electron Energy:        -1237.61609979 Eh          -33677.24619 eV
Two Electron Energy:          573.57015354 Eh           15607.63735 eV


---------------
SCF CONVERGENCE
---------------

  Last Energy change         ...   -5.1635e-08  Tolerance :   1.0000e-06
  Last MAX-Density change    ...    5.7291e-05  Tolerance :   1.0000e-05
  Last RMS-Density change    ...    1.4935e-06  Tolerance :   1.0000e-06
  Last Orbital Gradient      ...    1.1774e-05  Tolerance :   5.0000e-05
  Last Orbital Rotation      ...    2.3752e-05  Tolerance :   5.0000e-05

             **** THE GBW FILE WAS UPDATED (/Users/mattyjones/GoogleDrive/Boise/Code/MorphCT/tests/output_EZ/donor_polymer/chromophores/input_orca/pair/00009-00019.gbw) ****
             **** DENSITY FILE WAS UPDATED (/Users/mattyjones/GoogleDrive/Boise/Code/MorphCT/tests/output_EZ/donor_polymer/chromophores/input_orca/pair/00009-00019.scfp.tmp) ****
             **** ENERGY FILE WAS UPDATED (/Users/mattyjones/GoogleDrive/Boise/Code/MorphCT/tests/output_EZ/donor_polymer/chromophores/input_orca/pair/00009-00019.en.tmp) ****
----------------
ORBITAL ENERGIES
----------------

  NO   OCC          E(Eh)            E(eV) 
   0   2.0000      -1.559826       -42.4450 
   1   2.0000      -1.558147       -42.3993 
   2   2.0000      -1.412969       -38.4488 
   3   2.0000      -1.400553       -38.1110 
   4   2.0000      -1.297987       -35.3200 
   5   2.0000      -1.281408       -34.8689 
   6   2.0000      -1.179195       -32.0875 
   7   2.0000      -1.172061       -31.8934 
   8   2.0000      -1.119411       -30.4607 
   9   2.0000      -1.115594       -30.3569 
  10   2.0000      -1.060344       -28.8534 
  11   2.0000      -1.037134       -28.2218 
  12   2.0000      -0.956303       -26.0223 
  13   2.0000      -0.949747       -25.8439 
  14   2.0000      -0.923187       -25.1212 
  15   2.0000      -0.894877       -24.3509 
  16   2.0000      -0.855107       -23.2687 
  17   2.0000      -0.842798       -22.9337 
  18   2.0000      -0.835359       -22.7313 
  19   2.0000      -0.833115       -22.6702 
  20   2.0000      -0.783905       -21.3311 
  21   2.0000      -0.776016       -21.1165 
  22   2.0000      -0.739966       -20.1355 
  23   2.0000      -0.724608       -19.7176 
  24   2.0000      -0.709653       -19.3106 
  25   2.0000      -0.695261       -18.9190 
  26   2.0000      -0.674110       -18.3435 
  27   2.0000      -0.671760       -18.2795 
  28   2.0000      -0.640540       -17.4300 
  29   2.0000      -0.634511       -17.2659 
  30   2.0000      -0.622094       -16.9280 
  31   2.0000      -0.612570       -16.6689 
  32   2.0000      -0.593433       -16.1481 
  33   2.0000      -0.580634       -15.7999 
  34   2.0000      -0.576107       -15.6767 
  35   2.0000      -0.575366       -15.6565 
  36   2.0000      -0.565884       -15.3985 
  37   2.0000      -0.561881       -15.2896 
  38   2.0000      -0.561642       -15.2831 
  39   2.0000      -0.557450       -15.1690 
  40   2.0000      -0.534155       -14.5351 
  41   2.0000      -0.531383       -14.4597 
  42   2.0000      -0.522535       -14.2189 
  43   2.0000      -0.521356       -14.1868 
  44   2.0000      -0.507166       -13.8007 
  45   2.0000      -0.505726       -13.7615 
  46   2.0000      -0.495040       -13.4707 
  47   2.0000      -0.493581       -13.4310 
  48   2.0000      -0.491135       -13.3645 
  49   2.0000      -0.487222       -13.2580 
  50   2.0000      -0.485517       -13.2116 
  51   2.0000      -0.479052       -13.0357 
  52   2.0000      -0.468576       -12.7506 
  53   2.0000      -0.460506       -12.5310 
  54   2.0000      -0.459293       -12.4980 
  55   2.0000      -0.456903       -12.4330 
  56   2.0000      -0.437200       -11.8968 
  57   2.0000      -0.436922       -11.8893 
  58   2.0000      -0.356732        -9.7072 
  59   2.0000      -0.355268        -9.6673 
  60   2.0000      -0.305066        -8.3013 
  61   2.0000      -0.305054        -8.3009 
  62   0.0000       0.007510         0.2044 
  63   0.0000       0.008250         0.2245 
  64   0.0000       0.069375         1.8878 
  65   0.0000       0.071008         1.9322 
  66   0.0000       0.075363         2.0507 
  67   0.0000       0.077737         2.1153 
  68   0.0000       0.085963         2.3392 
  69   0.0000       0.089006         2.4220 
  70   0.0000       0.103008         2.8030 
  71   0.0000       0.104862         2.8534 
  72   0.0000       0.107962         2.9378 
  73   0.0000       0.108517         2.9529 
  74   0.0000       0.122727         3.3396 
  75   0.0000       0.123299         3.3551 
  76   0.0000       0.141645         3.8544 
  77   0.0000       0.143377         3.9015 
  78   0.0000       0.157160         4.2766 
  79   0.0000       0.160461         4.3664 
  80   0.0000       0.165578         4.5056 
  81   0.0000       0.165837         4.5127 
  82   0.0000       0.166649         4.5347 
  83   0.0000       0.170977         4.6525 
  84   0.0000       0.203827         5.5464 
  85   0.0000       0.203873         5.5477 
  86   0.0000       0.230757         6.2792 
  87   0.0000       0.233652         6.3580 
  88   0.0000       0.233858         6.3636 
  89   0.0000       0.235919         6.4197 
  90   0.0000       0.236443         6.4339 
  91   0.0000       0.237405         6.4601 
  92   0.0000       0.238243         6.4829 
  93   0.0000       0.238883         6.5003 
  94   0.0000       0.240998         6.5579 
  95   0.0000       0.240999         6.5579 
  96   0.0000       0.242513         6.5991 
  97   0.0000       0.244995         6.6667 
  98   0.0000       0.245542         6.6815 
  99   0.0000       0.245931         6.6921 
 100   0.0000       0.247298         6.7293 
 101   0.0000       0.250919         6.8279 
 102   0.0000       0.259710         7.0671 
 103   0.0000       0.265400         7.2219 
 104   0.0000       0.267057         7.2670 
 105   0.0000       0.267256         7.2724 
 106   0.0000       0.277865         7.5611 
 107   0.0000       0.284963         7.7542 
 108   0.0000       0.302488         8.2311 
 109   0.0000       0.306982         8.3534 
 110   0.0000       0.310445         8.4476 
 111   0.0000       0.311133         8.4664 
 112   0.0000       0.337465         9.1829 
 113   0.0000       0.340930         9.2772 
 114   0.0000       0.349845         9.5198 
 115   0.0000       0.354928         9.6581 
 116   0.0000       0.419511        11.4155 
 117   0.0000       0.420638        11.4461 
 118   0.0000       0.425610        11.5814 
 119   0.0000       0.428718        11.6660 
-------
TIMINGS
-------

Total SCF time: 0 days 0 hours 0 min 0 sec 

Total time                  ....       0.177 sec
Sum of individual times     ....       0.119 sec  ( 67.3%)

Fock matrix formation       ....       0.056 sec  ( 31.7%)
Diagonalization             ....       0.028 sec  ( 16.0%)
Density matrix formation    ....       0.008 sec  (  4.3%)
Population analysis         ....       0.000 sec  (  0.0%)
Initial guess               ....       0.004 sec  (  2.3%)
Orbital Transformation      ....       0.000 sec  (  0.0%)
Orbital Orthonormalization  ....       0.000 sec  (  0.0%)
DIIS solution               ....       0.017 sec  (  9.6%)
SOSCF solution              ....       0.006 sec  (  3.4%)

-------------------------   --------------------
FINAL SINGLE POINT ENERGY       -21.897107349667
-------------------------   --------------------


                            ***************************************
                            *     ORCA property calculations      *
                            ***************************************

                                    ---------------------
                                    Active property flags
                                    ---------------------
   (+) Dipole Moment


------------------------------------------------------------------------------
                       ORCA ELECTRIC PROPERTIES CALCULATION
------------------------------------------------------------------------------

Dipole Moment Calculation                       ... on
Quadrupole Moment Calculation                   ... off
Polarizability Calculation                      ... off
GBWName                                         ... /Users/mattyjones/GoogleDrive/Boise/Code/MorphCT/tests/output_EZ/donor_polymer/chromophores/input_orca/pair/00009-00019.gbw
Electron density file                           ... /Users/mattyjones/GoogleDrive/Boise/Code/MorphCT/tests/output_EZ/donor_polymer/chromophores/input_orca/pair/00009-00019.scfp.tmp

-------------
DIPOLE MOMENT
-------------
                                X             Y             Z
Electronic contribution:    -11.39001      -5.95900      -5.40304
Nuclear contribution   :      5.92700       3.34141       2.89351
                        -----------------------------------------
Total Dipole Moment    :     -5.46302      -2.61758      -2.50954
                        -----------------------------------------
Magnitude (a.u.)       :      6.55699
Magnitude (Debye)      :     16.66654


Timings for individual modules:

Sum of individual times         ...        0.267 sec (=   0.004 min)
STO integral calculation        ...        0.052 sec (=   0.001 min)  19.3 %
SCF iterations                  ...        0.216 sec (=   0.004 min)  80.7 %
                             ****ORCA TERMINATED NORMALLY****
TOTAL RUN TIME: 0 days 0 hours 0 minutes 0 seconds 641 msec

