
                                 *****************
                                 * O   R   C   A *
                                 *****************

           --- An Ab Initio, DFT and Semiempirical electronic structure package ---

                  #######################################################
                  #                        -***-                        #
                  #  Department of molecular theory and spectroscopy    #
                  #              Directorship: Frank Neese              #
                  # Max Planck Institute for Chemical Energy Conversion #
                  #                  D-45470 Muelheim/Ruhr              #
                  #                       Germany                       #
                  #                                                     #
                  #                  All rights reserved                #
                  #                        -***-                        #
                  #######################################################


                         Program Version 3.0.3 - RELEASE   -


 With contributions from (in alphabetic order):
   Ute Becker             : Parallelization
   Dmytro Bykov           : SCF Hessian
   Dmitry Ganyushin       : Spin-Orbit,Spin-Spin,Magnetic field MRCI
   Andreas Hansen         : Spin unrestricted coupled pair/coupled cluster methods
   Dimitrios Liakos       : Extrapolation schemes; parallel MDCI
   Robert Izsak           : Overlap fitted RIJCOSX, COSX-SCS-MP3
   Christian Kollmar      : KDIIS, OOCD, Brueckner-CCSD(T), CCSD density
   Simone Kossmann        : Meta GGA functionals, TD-DFT gradient, OOMP2, MP2 Hessian
   Taras Petrenko         : DFT Hessian,TD-DFT gradient, ASA and ECA modules, normal mode analysis, Resonance Raman, ABS, FL, XAS/XES, NRVS
   Christoph Reimann      : Effective Core Potentials
   Michael Roemelt        : Restricted open shell CIS
   Christoph Riplinger    : Improved optimizer, TS searches, QM/MM, DLPNO-CCSD
   Barbara Sandhoefer     : DKH picture change effects
   Igor Schapiro          : Molecular dynamics
   Kantharuban Sivalingam : CASSCF convergence, NEVPT2
   Boris Wezisla          : Elementary symmetry handling
   Frank Wennmohs         : Technical directorship


 We gratefully acknowledge several colleagues who have allowed us to
 interface, adapt or use parts of their codes:
   Stefan Grimme, W. Hujo, H. Kruse, T. Risthaus : VdW corrections, initial TS optimization,
                                                   DFT functionals, gCP
   Ed Valeev                                     : LibInt (2-el integral package), F12 methods
   Garnet Chan, S. Sharma, R. Olivares           : DMRG
   Ulf Ekstrom                                   : XCFun DFT Library
   Mihaly Kallay                                 : mrcc  (arbitrary order and MRCC methods)
   Andreas Klamt, Michael Diedenhofen            : otool_cosmo (COSMO solvation model)
   Frank Weinhold                                : gennbo (NPA and NBO analysis)
   Christopher J. Cramer and Donald G. Truhlar   : smd solvation model


 Your calculation uses the libint2 library for the computation of 2-el integrals
 For citations please refer to: http://libint.valeyev.net

 This ORCA versions uses:
   CBLAS   interface :  Fast vector & matrix operations
   LAPACKE interface :  Fast linear algebra routines
   SCALAPACK package :  Parallel linear algebra routines


leaving
================================================================================
                                        WARNINGS
                       Please study these warnings very carefully!
================================================================================
Now building the actual basis set

WARNING: Direct SCF is incompatible with Method<>HF and Method<>DFT
  ===> : conventional SCF is chosen

WARNING: The NDO methods need Guess=HUECKEL or Guess=HCORE or Guess=MOREAD
  ===> : Guess is set to Hueckel

WARNING: The NDO methods need %rel::SOCType==1
  ===> : %rel::SOCType is set to 1

WARNING: The NDO methods cannot have frozencore=1
  ===> : %method FrozenCore=0 end


INFO   : the flag for use of LIBINT has been found!

================================================================================
                                       INPUT FILE
================================================================================
NAME = /Users/mattyjones/GoogleDrive/Boise/Code/MorphCT/tests/output_EZ/donor_polymer/chromophores/input_orca/pair/00000-00011.inp
|  1> # ================================================================
|  2> # Orca input file made by Matty Jones
|  3> # ================================================================
|  4> ! ZINDO/S 
|  5> ! NOPOP
|  6> ! NOMOPRINT
|  7> * xyz 0   1
|  8>  C  -12.97611  12.43388  28.66932
|  9>  C  -12.64189  11.27029  27.97487
| 10>  C  -11.36041  10.73510  28.31493
| 11>  C  -10.67929  11.47985  29.28279
| 12>  S  -11.68432  12.74354  29.66153
| 13>  H  -13.25035  11.00532  27.04742
| 14>  C  -10.97798  9.38985  27.51014
| 15>  C  -11.63796  9.48004  25.90739
| 16>  C  -13.24199  8.83636  25.97516
| 17>  H  -13.00926  7.69285  25.86387
| 18>  H  -13.59328  8.97337  27.07317
| 19>  H  -11.66034  10.56036  25.53407
| 20>  H  -11.00492  8.82733  25.21046
| 21>  H  -11.40053  8.45087  28.03529
| 22>  H  -9.82792  9.28618  27.40451
| 23>  C  -14.57939  9.04951  25.03923
| 24>  C  -14.86173  10.22378  23.84604
| 25>  C  -15.82203  11.53479  24.30513
| 26>  H  -16.86981  11.42347  23.82355
| 27>  H  -15.33324  12.51627  23.93534
| 28>  H  -15.92784  11.56252  25.45608
| 29>  H  -15.38886  9.70192  22.96288
| 30>  H  -13.84180  10.63075  23.50156
| 31>  H  -14.75863  8.03828  24.49225
| 32>  H  -15.46348  9.19401  25.78546
| 33>  C  10.09825  -13.24316  -27.60333
| 34>  C  10.92026  -12.35672  -26.90590
| 35>  C  11.50189  -12.90832  -25.72196
| 36>  C  11.13732  -14.23702  -25.48332
| 37>  S  10.12871  -14.65357  -26.73217
| 38>  H  11.13984  -11.29204  -27.25612
| 39>  C  12.51196  -12.11855  -24.72925
| 40>  C  13.84280  -11.04154  -25.00289
| 41>  C  14.55075  -10.23386  -26.33393
| 42>  H  15.69448  -10.37227  -26.26637
| 43>  H  14.16143  -10.72950  -27.29891
| 44>  H  14.73701  -11.67195  -24.60489
| 45>  H  13.64328  -10.19030  -24.24207
| 46>  H  13.03015  -12.92772  -24.06329
| 47>  H  11.82513  -11.48854  -24.00890
| 48>  C  14.19968  -8.63516  -26.34344
| 49>  C  14.95398  -7.68654  -27.52899
| 50>  C  14.56347  -6.04663  -27.46642
| 51>  H  14.22303  -5.76850  -26.39627
| 52>  H  13.70794  -5.82889  -28.21497
| 53>  H  15.49463  -5.42044  -27.75079
| 54>  H  16.09369  -7.78758  -27.39512
| 55>  H  14.64584  -8.09179  -28.56122
| 56>  H  13.05876  -8.50099  -26.47505
| 57>  H  14.50962  -8.18367  -25.32269
| 58>  H  -13.86777  13.00022  28.58103
| 59>  H  -9.72120  11.27880  29.68929
| 60>  H  9.56658  -13.05451  -28.50074
| 61>  H  11.44186  -14.84973  -24.67372
| 62> *
| 63> 
| 64>                          ****END OF INPUT****
================================================================================

                       ****************************
                       * Single Point Calculation *
                       ****************************

---------------------------------
CARTESIAN COORDINATES (ANGSTROEM)
---------------------------------
  C    -12.976110   12.433880   28.669320
  C    -12.641890   11.270290   27.974870
  C    -11.360410   10.735100   28.314930
  C    -10.679290   11.479850   29.282790
  S    -11.684320   12.743540   29.661530
  H    -13.250350   11.005320   27.047420
  C    -10.977980    9.389850   27.510140
  C    -11.637960    9.480040   25.907390
  C    -13.241990    8.836360   25.975160
  H    -13.009260    7.692850   25.863870
  H    -13.593280    8.973370   27.073170
  H    -11.660340   10.560360   25.534070
  H    -11.004920    8.827330   25.210460
  H    -11.400530    8.450870   28.035290
  H     -9.827920    9.286180   27.404510
  C    -14.579390    9.049510   25.039230
  C    -14.861730   10.223780   23.846040
  C    -15.822030   11.534790   24.305130
  H    -16.869810   11.423470   23.823550
  H    -15.333240   12.516270   23.935340
  H    -15.927840   11.562520   25.456080
  H    -15.388860    9.701920   22.962880
  H    -13.841800   10.630750   23.501560
  H    -14.758630    8.038280   24.492250
  H    -15.463480    9.194010   25.785460
  C     10.098250  -13.243160  -27.603330
  C     10.920260  -12.356720  -26.905900
  C     11.501890  -12.908320  -25.721960
  C     11.137320  -14.237020  -25.483320
  S     10.128710  -14.653570  -26.732170
  H     11.139840  -11.292040  -27.256120
  C     12.511960  -12.118550  -24.729250
  C     13.842800  -11.041540  -25.002890
  C     14.550750  -10.233860  -26.333930
  H     15.694480  -10.372270  -26.266370
  H     14.161430  -10.729500  -27.298910
  H     14.737010  -11.671950  -24.604890
  H     13.643280  -10.190300  -24.242070
  H     13.030150  -12.927720  -24.063290
  H     11.825130  -11.488540  -24.008900
  C     14.199680   -8.635160  -26.343440
  C     14.953980   -7.686540  -27.528990
  C     14.563470   -6.046630  -27.466420
  H     14.223030   -5.768500  -26.396270
  H     13.707940   -5.828890  -28.214970
  H     15.494630   -5.420440  -27.750790
  H     16.093690   -7.787580  -27.395120
  H     14.645840   -8.091790  -28.561220
  H     13.058760   -8.500990  -26.475050
  H     14.509620   -8.183670  -25.322690
  H    -13.867770   13.000220   28.581030
  H     -9.721200   11.278800   29.689290
  H      9.566580  -13.054510  -28.500740
  H     11.441860  -14.849730  -24.673720

----------------------------
CARTESIAN COORDINATES (A.U.)
----------------------------
  NO LB      ZA    FRAG    MASS        X           Y           Z
   0 C     4.0000    0    12.011        -24.521294183636893         23.496627982040774         54.177163245751217
   1 C     4.0000    0    12.011        -23.889709915157731         21.297761549871343         52.864842932049605
   2 C     4.0000    0    12.011        -21.468063669060328         20.286399020258028         53.507463201150870
   3 C     4.0000    0    12.011        -20.180933404723884         21.693772558495883         55.336453537127888
   4 S     6.0000    0    32.060        -22.080164861098758         24.081800576670826         56.052168413089220
   5 H     1.0000    0     1.008        -25.039532678603454         20.797040816166227         51.112216429144340
   6 C     4.0000    0    12.011        -20.745375703664823         17.744244938600463         51.986630505832380
   7 C     4.0000    0    12.011        -21.992557157530168         17.914679338618825         48.957871944690098
   8 C     4.0000    0    12.011        -25.023734568123874         16.698300420736395         49.085938684785937
   9 H     1.0000    0     1.008        -24.583938604976382         14.537379689336101         48.875631063341842
  10 H     1.0000    0     1.008        -25.687576461709071         16.957211798344940         51.160876877092818
  11 H     1.0000    0     1.008        -22.034849228407328         19.956188275616629         48.252399384374613
  12 H     1.0000    0     1.008        -20.796284925712662         16.681236193747083         47.640865110176364
  13 H     1.0000    0     1.008        -21.543879481553248         15.969829893371088         52.979020185061124
  14 H     1.0000    0     1.008        -18.572077266087348         17.548337030296850         51.787018734306280
  15 C     4.0000    0    12.011        -27.551054299630156         17.101095546181707         47.317287304265022
  16 C     4.0000    0    12.011        -28.084599576281484         19.320144253461415         45.062484978531522
  17 C     4.0000    0    12.011        -29.899303582686063         21.797594112293513         45.930039349353429
  18 H     1.0000    0     1.008        -31.879320831286073         21.587229799065401         45.019985037779634
  19 H     1.0000    0     1.008        -28.975624345686693         23.652322518214547         45.231237522290691
  20 H     1.0000    0     1.008        -30.099255504916268         21.849996217987151         48.105019643190097
  21 H     1.0000    0     1.008        -29.080730913255390         18.333971773213268         43.393554446097632
  22 H     1.0000    0     1.008        -26.157211200511181         20.089206098183347         44.411512119918335
  23 H     1.0000    0     1.008        -27.889768811874202         15.190147787776519         46.283644903532775
  24 H     1.0000    0     1.008        -29.221742277368598         17.374160972533328         48.727457637181075
  25 C     4.0000    0    12.011         19.082926931870279        -25.025945547700562        -52.162734084252506
  26 C     4.0000    0    12.011         20.636300711214890        -23.350816713547406        -50.844782386671802
  27 C     4.0000    0    12.011         21.735422122487503        -24.393189649018371        -48.607460027677078
  28 C     4.0000    0    12.011         21.046484665843835        -26.904068763159536        -48.156495783078107
  29 S     6.0000    0    32.060         19.140487989909520        -27.691234184244436        -50.516480265425663
  30 H     1.0000    0     1.008         21.051246775701316        -21.338863093284132        -51.506602273293701
  31 C     4.0000    0    12.011         23.644177798577346        -22.900740640231387        -46.731509997272113
  32 C     4.0000    0    12.011         26.159100926645102        -20.865486696736856        -47.248614656558324
  33 C     4.0000    0    12.011         27.496932543154653        -19.339192692891341        -49.763915729852862
  34 H     1.0000    0     1.008         29.658269014304405        -19.600749687087383        -49.636245832245145
  35 H     1.0000    0     1.008         26.761224364696428        -20.275816553908069        -51.587463654564196
  36 H     1.0000    0     1.008         27.848912932858823        -22.056788948822156        -46.496503655257669
  37 H     1.0000    0     1.008         25.782062768405137        -19.256876222497731        -45.810873219348352
  38 H     1.0000    0     1.008         24.623414983914000        -24.429850336016447        -45.473027981125917
  39 H     1.0000    0     1.008         22.346257198016211        -21.710194278599658        -45.370245776701942
  40 C     4.0000    0    12.011         26.833506389318920        -16.318087522591437        -49.781887025386460
  41 C     4.0000    0    12.011         28.258926812135719        -14.525455517431057        -52.022251843456800
  42 C     4.0000    0    12.011         27.520969859578130        -11.426474733152258        -51.904011679257344
  43 H     1.0000    0     1.008         26.877631494545980        -10.900885203524741        -49.881721257041519
  44 H     1.0000    0     1.008         25.904252460224484        -11.015005764752246        -53.318566176804097
  45 H     1.0000    0     1.008         29.280607246440244        -10.243147125352110        -52.441393099960528
  46 H     1.0000    0     1.008         30.412666584227107        -14.716393446002462        -51.769274205908758
  47 H     1.0000    0     1.008         27.676626601229223        -15.291267033202644        -53.972883850674329
  48 H     1.0000    0     1.008         24.677480048605485        -16.064542967203220        -50.030593881871830
  49 H     1.0000    0     1.008         27.419208107266471        -15.464895070387328        -47.852949074186341
  50 H     1.0000    0     1.008        -26.206287388209116         24.566855480725735         54.010319325387307
  51 H     1.0000    0     1.008        -18.370405693075270         21.313843119271013         56.104627210566875
  52 H     1.0000    0     1.008         18.078216238248366        -24.669448712536319        -53.858593214094775
  53 H     1.0000    0     1.008         21.621981862668214        -28.061922862674425        -46.626573505055461

--------------------------------
INTERNAL COORDINATES (ANGSTROEM)
--------------------------------
 C      0   0   0   0.000000     0.000     0.000
 C      1   0   0   1.395674     0.000     0.000
 C      2   1   0   1.429776   114.102     0.000
 C      3   2   1   1.398331   113.693     0.000
 S      1   2   3   1.658038   105.480     0.000
 H      2   1   3   1.140437   118.072   195.318
 C      3   2   1   1.613579   113.946   179.989
 C      7   3   2   1.735660   109.094    34.394
 C      8   7   3   1.729690   107.284   271.668
 H      9   8   7   1.172247   100.089   275.528
 H      9   8   7   1.160949   105.887    24.826
 H      8   7   3   1.143224   110.983    32.184
 H      8   7   3   1.145636   108.786   153.989
 H      7   3   2   1.155861   111.348   274.262
 H      7   3   2   1.159544   110.796   152.326
 C      9   8   7   1.646219   133.073   156.109
 C     16   9   8   1.697742   128.626   347.434
 C     17  16   9   1.688694   116.134   259.070
 H     18  17  16   1.158514   109.069   254.119
 H     18  17  16   1.157136   109.354   134.628
 H     18  17  16   1.156136   109.956    14.169
 H     17  16   9   1.153332   107.531   138.745
 H     17  16   9   1.150890   107.913    20.565
 H     16   9   8   1.163572   106.253   111.472
 H     16   9   8   1.165914   105.557   224.841
 C     13   8   7  61.006120   157.503   193.951
 C     26  13   8   1.395666    62.700   104.188
 C     27  26  13   1.429780   114.101    72.102
 C     28  27  26   1.398322   113.693     0.000
 S     26  13   8   1.658042    81.908   216.321
 H     27  26  13   1.142109   123.510   250.450
 C     28  27  26   1.621558   124.920   179.090
 C     32  28  27   1.733772   133.162   318.749
 C     33  32  28   1.710324   137.215     7.996
 H     34  33  32   1.154054   107.940   225.750
 H     34  33  32   1.152569   107.980   343.926
 H     33  32  28   1.164230   101.493   246.267
 H     33  32  28   1.158993   102.738   134.823
 H     32  28  27   1.169094   106.722   196.142
 H     32  28  27   1.177944   105.764    83.257
 C     34  33  32   1.636821   112.147   105.331
 C     41  34  33   1.695399   117.073   174.561
 C     42  41  34   1.686926   114.519   180.816
 H     43  42  41   1.156926   109.641    24.012
 H     43  42  41   1.157441   109.269   263.871
 H     43  42  41   1.157601   109.302   144.053
 H     42  41  34   1.151985   108.049   301.278
 H     42  41  34   1.150946   108.121    60.024
 H     41  34  33   1.156296   109.003   296.284
 H     41  34  33   1.158377   108.553    54.420
 H      1   2   3   1.059997   127.260   180.000
 H      4   3   2   1.060000   127.206   180.000
 H     26  13   8   1.060003   119.672   344.842
 H     29  28  27   1.060005   127.206   179.999

---------------------------
INTERNAL COORDINATES (A.U.)
---------------------------
 C      0   0   0   0.000000     0.000     0.000
 C      1   0   0   2.637441     0.000     0.000
 C      2   1   0   2.701886   114.102     0.000
 C      3   2   1   2.642463   113.693     0.000
 S      1   2   3   3.133239   105.480     0.000
 H      2   1   3   2.155113   118.072   195.318
 C      3   2   1   3.049222   113.946   179.989
 C      7   3   2   3.279922   109.094    34.394
 C      8   7   3   3.268641   107.284   271.668
 H      9   8   7   2.215226   100.089   275.528
 H      9   8   7   2.193875   105.887    24.826
 H      8   7   3   2.160379   110.983    32.184
 H      8   7   3   2.164938   108.786   153.989
 H      7   3   2   2.184261   111.348   274.262
 H      7   3   2   2.191221   110.796   152.326
 C      9   8   7   3.110903   133.073   156.109
 C     16   9   8   3.208268   128.626   347.434
 C     17  16   9   3.191169   116.134   259.070
 H     18  17  16   2.189274   109.069   254.119
 H     18  17  16   2.186670   109.354   134.628
 H     18  17  16   2.184781   109.956    14.169
 H     17  16   9   2.179482   107.531   138.745
 H     17  16   9   2.174867   107.913    20.565
 H     16   9   8   2.198833   106.253   111.472
 H     16   9   8   2.203257   105.557   224.841
 C     13   8   7 115.284860   157.503   193.951
 C     26  13   8   2.637427    62.700   104.188
 C     27  26  13   2.701892   114.101    72.102
 C     28  27  26   2.642445   113.693     0.000
 S     26  13   8   3.133246    81.908   216.321
 H     27  26  13   2.158273   123.510   250.450
 C     28  27  26   3.064301   124.920   179.090
 C     32  28  27   3.276354   133.162   318.749
 C     33  32  28   3.232044   137.215     7.996
 H     34  33  32   2.180845   107.940   225.750
 H     34  33  32   2.178040   107.980   343.926
 H     33  32  28   2.200077   101.493   246.267
 H     33  32  28   2.190179   102.738   134.823
 H     32  28  27   2.209267   106.722   196.142
 H     32  28  27   2.225992   105.764    83.257
 C     34  33  32   3.093143   112.147   105.331
 C     41  34  33   3.203839   117.073   174.561
 C     42  41  34   3.187827   114.519   180.816
 H     43  42  41   2.186272   109.641    24.012
 H     43  42  41   2.187246   109.269   263.871
 H     43  42  41   2.187548   109.302   144.053
 H     42  41  34   2.176936   108.049   301.278
 H     42  41  34   2.174973   108.121    60.024
 H     41  34  33   2.185083   109.003   296.284
 H     41  34  33   2.189015   108.553    54.420
 H      1   2   3   2.003104   127.260   180.000
 H      4   3   2   2.003110   127.206   180.000
 H     26  13   8   2.003116   119.672   344.842
 H     29  28  27   2.003119   127.206   179.999

----------------------------
SLATER BASIS SET DIM= 120
----------------------------
  0 C     2 shells
 l=0 nsto= 1
    2       1.625000000000        1.000000000000
 l=1 nsto= 1
    2       1.625000000000        1.000000000000
  1 C     2 shells
 l=0 nsto= 1
    2       1.625000000000        1.000000000000
 l=1 nsto= 1
    2       1.625000000000        1.000000000000
  2 C     2 shells
 l=0 nsto= 1
    2       1.625000000000        1.000000000000
 l=1 nsto= 1
    2       1.625000000000        1.000000000000
  3 C     2 shells
 l=0 nsto= 1
    2       1.625000000000        1.000000000000
 l=1 nsto= 1
    2       1.625000000000        1.000000000000
  4 S     2 shells
 l=0 nsto= 1
    3       1.925000000000        1.000000000000
 l=1 nsto= 1
    3       1.925000000000        1.000000000000
  5 H     1 shells
 l=0 nsto= 1
    1       1.200000000000        1.000000000000
  6 C     2 shells
 l=0 nsto= 1
    2       1.625000000000        1.000000000000
 l=1 nsto= 1
    2       1.625000000000        1.000000000000
  7 C     2 shells
 l=0 nsto= 1
    2       1.625000000000        1.000000000000
 l=1 nsto= 1
    2       1.625000000000        1.000000000000
  8 C     2 shells
 l=0 nsto= 1
    2       1.625000000000        1.000000000000
 l=1 nsto= 1
    2       1.625000000000        1.000000000000
  9 H     1 shells
 l=0 nsto= 1
    1       1.200000000000        1.000000000000
 10 H     1 shells
 l=0 nsto= 1
    1       1.200000000000        1.000000000000
 11 H     1 shells
 l=0 nsto= 1
    1       1.200000000000        1.000000000000
 12 H     1 shells
 l=0 nsto= 1
    1       1.200000000000        1.000000000000
 13 H     1 shells
 l=0 nsto= 1
    1       1.200000000000        1.000000000000
 14 H     1 shells
 l=0 nsto= 1
    1       1.200000000000        1.000000000000
 15 C     2 shells
 l=0 nsto= 1
    2       1.625000000000        1.000000000000
 l=1 nsto= 1
    2       1.625000000000        1.000000000000
 16 C     2 shells
 l=0 nsto= 1
    2       1.625000000000        1.000000000000
 l=1 nsto= 1
    2       1.625000000000        1.000000000000
 17 C     2 shells
 l=0 nsto= 1
    2       1.625000000000        1.000000000000
 l=1 nsto= 1
    2       1.625000000000        1.000000000000
 18 H     1 shells
 l=0 nsto= 1
    1       1.200000000000        1.000000000000
 19 H     1 shells
 l=0 nsto= 1
    1       1.200000000000        1.000000000000
 20 H     1 shells
 l=0 nsto= 1
    1       1.200000000000        1.000000000000
 21 H     1 shells
 l=0 nsto= 1
    1       1.200000000000        1.000000000000
 22 H     1 shells
 l=0 nsto= 1
    1       1.200000000000        1.000000000000
 23 H     1 shells
 l=0 nsto= 1
    1       1.200000000000        1.000000000000
 24 H     1 shells
 l=0 nsto= 1
    1       1.200000000000        1.000000000000
 25 C     2 shells
 l=0 nsto= 1
    2       1.625000000000        1.000000000000
 l=1 nsto= 1
    2       1.625000000000        1.000000000000
 26 C     2 shells
 l=0 nsto= 1
    2       1.625000000000        1.000000000000
 l=1 nsto= 1
    2       1.625000000000        1.000000000000
 27 C     2 shells
 l=0 nsto= 1
    2       1.625000000000        1.000000000000
 l=1 nsto= 1
    2       1.625000000000        1.000000000000
 28 C     2 shells
 l=0 nsto= 1
    2       1.625000000000        1.000000000000
 l=1 nsto= 1
    2       1.625000000000        1.000000000000
 29 S     2 shells
 l=0 nsto= 1
    3       1.925000000000        1.000000000000
 l=1 nsto= 1
    3       1.925000000000        1.000000000000
 30 H     1 shells
 l=0 nsto= 1
    1       1.200000000000        1.000000000000
 31 C     2 shells
 l=0 nsto= 1
    2       1.625000000000        1.000000000000
 l=1 nsto= 1
    2       1.625000000000        1.000000000000
 32 C     2 shells
 l=0 nsto= 1
    2       1.625000000000        1.000000000000
 l=1 nsto= 1
    2       1.625000000000        1.000000000000
 33 C     2 shells
 l=0 nsto= 1
    2       1.625000000000        1.000000000000
 l=1 nsto= 1
    2       1.625000000000        1.000000000000
 34 H     1 shells
 l=0 nsto= 1
    1       1.200000000000        1.000000000000
 35 H     1 shells
 l=0 nsto= 1
    1       1.200000000000        1.000000000000
 36 H     1 shells
 l=0 nsto= 1
    1       1.200000000000        1.000000000000
 37 H     1 shells
 l=0 nsto= 1
    1       1.200000000000        1.000000000000
 38 H     1 shells
 l=0 nsto= 1
    1       1.200000000000        1.000000000000
 39 H     1 shells
 l=0 nsto= 1
    1       1.200000000000        1.000000000000
 40 C     2 shells
 l=0 nsto= 1
    2       1.625000000000        1.000000000000
 l=1 nsto= 1
    2       1.625000000000        1.000000000000
 41 C     2 shells
 l=0 nsto= 1
    2       1.625000000000        1.000000000000
 l=1 nsto= 1
    2       1.625000000000        1.000000000000
 42 C     2 shells
 l=0 nsto= 1
    2       1.625000000000        1.000000000000
 l=1 nsto= 1
    2       1.625000000000        1.000000000000
 43 H     1 shells
 l=0 nsto= 1
    1       1.200000000000        1.000000000000
 44 H     1 shells
 l=0 nsto= 1
    1       1.200000000000        1.000000000000
 45 H     1 shells
 l=0 nsto= 1
    1       1.200000000000        1.000000000000
 46 H     1 shells
 l=0 nsto= 1
    1       1.200000000000        1.000000000000
 47 H     1 shells
 l=0 nsto= 1
    1       1.200000000000        1.000000000000
 48 H     1 shells
 l=0 nsto= 1
    1       1.200000000000        1.000000000000
 49 H     1 shells
 l=0 nsto= 1
    1       1.200000000000        1.000000000000
 50 H     1 shells
 l=0 nsto= 1
    1       1.200000000000        1.000000000000
 51 H     1 shells
 l=0 nsto= 1
    1       1.200000000000        1.000000000000
 52 H     1 shells
 l=0 nsto= 1
    1       1.200000000000        1.000000000000
 53 H     1 shells
 l=0 nsto= 1
    1       1.200000000000        1.000000000000
------------------------------------------------------------------------------
                           ORCA NDO INTEGRAL CALCULATION
------------------------------------------------------------------------------

--------------
NDO PARAMETERS
--------------

Gamma integral treatment              ... Mataga-Nishimoto
Nuclear repulsuion treatment          ... Direct (ZA*ZB/RAB)
Interaction factors:
s-s (sigma) =    1.0000
s-p (sigma) =    1.0000
s-d (sigma) =    1.0000
p-p (sigma) =    1.2670  p-p(pi) =    0.5850
p-d (sigma) =    1.0000  p-d(pi) =    1.0000
d-d (sigma) =    1.0000  d-d(pi) =    1.0000 d-d (delta) =    1.0000

fGamma parameter for Mataga-Nishimoto gamma integrals:    1.2000

--------------------------
Parameters for Element H :
--------------------------
 One-electron parameters (in eV)
  U(s)  =   -13.060000 Beta(s) =    12.000000 Neff(s) =     1.000000
 One-center electron repulsion parameters (in eV)
  G(s,s)=    12.850000
--------------------------
Parameters for Element C :
--------------------------
 One-electron parameters (in eV)
  U(s)  =   -50.870766 Beta(s) =    17.000000 Neff(s) =     2.000000
  U(p)  =   -41.599980 Beta(p) =    17.000000 Neff(p) =     2.000000 
 One-center electron repulsion parameters (in eV)
  G(s,s)=    11.110000
  G(s,p)=    11.110000 G(p,p)  =    11.110000
 Slater-Condon parameters (in eV)
 F2(p,p)=     4.5098 G1(s,p)=    6.8977
--------------------------
Parameters for Element S :
--------------------------
 One-electron parameters (in eV)
  U(s)  =   -69.509597 Beta(s) =    15.000000 Neff(s) =     2.000000
  U(p)  =   -60.725746 Beta(p) =    15.000000 Neff(p) =     4.000000 
 One-center electron repulsion parameters (in eV)
  G(s,s)=    10.090000
  G(s,p)=    10.090000 G(p,p)  =    10.090000
 Slater-Condon parameters (in eV)
 F2(p,p)=     4.5377 G1(s,p)=    3.0756

 Number of atoms                    ....   54
 Number of basis functions          ....  120

 Overlap integrals                  .... done
 One electron matrix                .... done
 Nuclear repulsion                  .... done
 Integral list                      .... done
 Electron-electron repulsion        .... done
-------------------------------------------------------------------------------
                                 ORCA SCF
-------------------------------------------------------------------------------

------------
SCF SETTINGS
------------
Hamiltonian:
 ZDO-Hamiltonian        Method          .... INDO


General Settings:
 Integral files         IntName         .... /Users/mattyjones/GoogleDrive/Boise/Code/MorphCT/tests/output_EZ/donor_polymer/chromophores/input_orca/pair/00000-00011
 Hartree-Fock type      HFTyp           .... RHF
 Total Charge           Charge          ....    0
 Multiplicity           Mult            ....    1
 Number of Electrons    NEL             ....  124
 Basis Dimension        Dim             ....  120
 Nuclear Repulsion      ENuc            ....    626.7409080391 Eh

Convergence Acceleration:
 DIIS                   CNVDIIS         .... on
   Start iteration      DIISMaxIt       ....    12
   Startup error        DIISStart       ....  0.200000
   # of expansion vecs  DIISMaxEq       ....     5
   Bias factor          DIISBfac        ....   1.050
   Max. coefficient     DIISMaxC        ....  10.000
 Newton-Raphson         CNVNR           .... off
 SOSCF                  CNVSOSCF        .... on
   Start iteration      SOSCFMaxIt      ....   150
   Startup grad/error   SOSCFStart      ....  0.003300
 Level Shifting         CNVShift        .... on
   Level shift para.    LevelShift      ....    0.2500
   Turn off err/grad.   ShiftErr        ....    0.0010
 Zerner damping         CNVZerner       .... off
 Static damping         CNVDamp         .... on
   Fraction old density DampFac         ....    0.7000
   Max. Damping (<1)    DampMax         ....    0.9800
   Min. Damping (>=0)   DampMin         ....    0.0000
   Turn off err/grad.   DampErr         ....    0.1000
 Fernandez-Rico         CNVRico         .... off

SCF Procedure:
 Maximum # iterations   MaxIter         ....   125
 SCF integral mode      SCFMode         .... Conventional
 Integral Buffer length BufferLength    .... 1048576
 Integral index format  IndFormat       ....     0
 Integral value format  ValFormat       ....     0
 Integral Storage       Thresh          ....  1.000e-08 Eh

Convergence Tolerance:
 Convergence Check Mode ConvCheckMode   .... Total+1el-Energy
 Energy Change          TolE            ....  1.000e-06 Eh
 1-El. energy change                    ....  1.000e-03 Eh
 Orbital Gradient       TolG            ....  5.000e-05
 Orbital Rotation angle TolX            ....  5.000e-05
 DIIS Error             TolErr          ....  1.000e-06


Diagonalization of the overlap matrix:
Smallest eigenvalue                        ... 1.695e-01
Time for diagonalization                   ...    0.003 sec
Threshold for overlap eigenvalues          ... 1.000e-08
Number of eigenvalues below threshold      ... 0
Time for construction of square roots      ...    0.001 sec
Total time needed                          ...    0.005 sec

-------------------------------
INITIAL GUESS: EXTENDED HUECKEL
-------------------------------
EHT matrix was read from disk
EHT matrix was diagonalized
Initial density was built
                      ------------------
                      INITIAL GUESS DONE
                      ------------------

 InCore treatment chosen:
   Memory dedicated               ...    1024 MB
   Memory needed                  ...      0 MB
   Number of tiny    integrals    ...       0
   Number of small   integrals    ...       0
   Number of regular integrals    ...    7392

--------------
SCF ITERATIONS
--------------
ITER       Energy         Delta-E        Max-DP      RMS-DP      [F,P]     Damp
  0    -17.9404602300   0.000000000000 0.04042846  0.00143886  0.0922405 0.7000
  1    -17.9821653657  -0.041705135693 0.03843330  0.00135633  0.0658106 0.7000
                               ***Turning on DIIS***
  2    -18.0130786907  -0.030913325010 0.09820168  0.00348587  0.0429460 0.0000
  3    -18.0926393700  -0.079560679275 0.01882853  0.00072234  0.0173340 0.0000
  4    -18.0791623611   0.013477008825 0.01051390  0.00049556  0.0066381 0.0000
  5    -18.0961316420  -0.016969280870 0.00748525  0.00033435  0.0038716 0.0000
  6    -18.0992642914  -0.003132649373 0.00534648  0.00023709  0.0020370 0.0000
                      *** Initiating the SOSCF procedure ***
                           *** Shutting down DIIS ***
                      *** Re-Reading the Fockian *** 
                      *** Removing any level shift *** 
ITER      Energy       Delta-E        Grad      Rot      Max-DP    RMS-DP
  7    -18.09478043   0.0044838660  0.003027  0.003027  0.003192  0.000134
  8    -18.09262060   0.0021598295  0.000825  0.002284  0.001589  0.000063
  9    -18.09263565  -0.0000150510  0.000365  0.002243  0.001782  0.000067
 10    -18.09264118  -0.0000055355  0.000029  0.000083  0.000111  0.000004
                 **** Energy Check signals convergence ****
              ***Rediagonalizing the Fockian in SOSCF/NRSCF***

               *****************************************************
               *                     SUCCESS                       *
               *           SCF CONVERGED AFTER  11 CYCLES          *
               *****************************************************


----------------
TOTAL SCF ENERGY
----------------

Total Energy       :          -18.09264123 Eh            -492.32580 eV

Components:
Nuclear Repulsion  :          626.74090804 Eh           17054.48714 eV
Electronic Energy  :         -644.83354927 Eh          -17546.81294 eV

One Electron Energy:        -1199.38821966 Eh          -32637.01269 eV
Two Electron Energy:          554.55467039 Eh           15090.19975 eV


---------------
SCF CONVERGENCE
---------------

  Last Energy change         ...   -5.0191e-08  Tolerance :   1.0000e-06
  Last MAX-Density change    ...    5.7395e-05  Tolerance :   1.0000e-05
  Last RMS-Density change    ...    1.3465e-06  Tolerance :   1.0000e-06
  Last Orbital Gradient      ...    1.1445e-05  Tolerance :   5.0000e-05
  Last Orbital Rotation      ...    2.3883e-05  Tolerance :   5.0000e-05

             **** THE GBW FILE WAS UPDATED (/Users/mattyjones/GoogleDrive/Boise/Code/MorphCT/tests/output_EZ/donor_polymer/chromophores/input_orca/pair/00000-00011.gbw) ****
             **** DENSITY FILE WAS UPDATED (/Users/mattyjones/GoogleDrive/Boise/Code/MorphCT/tests/output_EZ/donor_polymer/chromophores/input_orca/pair/00000-00011.scfp.tmp) ****
             **** ENERGY FILE WAS UPDATED (/Users/mattyjones/GoogleDrive/Boise/Code/MorphCT/tests/output_EZ/donor_polymer/chromophores/input_orca/pair/00000-00011.en.tmp) ****
----------------
ORBITAL ENERGIES
----------------

  NO   OCC          E(Eh)            E(eV) 
   0   2.0000      -1.565893       -42.6101 
   1   2.0000      -1.554965       -42.3127 
   2   2.0000      -1.388911       -37.7942 
   3   2.0000      -1.384723       -37.6802 
   4   2.0000      -1.302074       -35.4312 
   5   2.0000      -1.283732       -34.9321 
   6   2.0000      -1.195672       -32.5359 
   7   2.0000      -1.176550       -32.0156 
   8   2.0000      -1.120590       -30.4928 
   9   2.0000      -1.108955       -30.1762 
  10   2.0000      -1.039350       -28.2822 
  11   2.0000      -1.022899       -27.8345 
  12   2.0000      -0.969305       -26.3761 
  13   2.0000      -0.968085       -26.3429 
  14   2.0000      -0.926691       -25.2166 
  15   2.0000      -0.886336       -24.1184 
  16   2.0000      -0.877921       -23.8894 
  17   2.0000      -0.843446       -22.9513 
  18   2.0000      -0.828489       -22.5443 
  19   2.0000      -0.825763       -22.4701 
  20   2.0000      -0.776273       -21.1235 
  21   2.0000      -0.763464       -20.7749 
  22   2.0000      -0.746682       -20.3183 
  23   2.0000      -0.711697       -19.3662 
  24   2.0000      -0.707974       -19.2649 
  25   2.0000      -0.684582       -18.6284 
  26   2.0000      -0.680680       -18.5222 
  27   2.0000      -0.674373       -18.3506 
  28   2.0000      -0.639744       -17.4083 
  29   2.0000      -0.629538       -17.1306 
  30   2.0000      -0.617210       -16.7951 
  31   2.0000      -0.600255       -16.3338 
  32   2.0000      -0.596525       -16.2323 
  33   2.0000      -0.589840       -16.0504 
  34   2.0000      -0.577395       -15.7117 
  35   2.0000      -0.575318       -15.6552 
  36   2.0000      -0.573911       -15.6169 
  37   2.0000      -0.557208       -15.1624 
  38   2.0000      -0.550307       -14.9746 
  39   2.0000      -0.549800       -14.9608 
  40   2.0000      -0.537748       -14.6329 
  41   2.0000      -0.531122       -14.4526 
  42   2.0000      -0.528292       -14.3756 
  43   2.0000      -0.521433       -14.1889 
  44   2.0000      -0.507107       -13.7991 
  45   2.0000      -0.504988       -13.7414 
  46   2.0000      -0.492756       -13.4086 
  47   2.0000      -0.490376       -13.3438 
  48   2.0000      -0.489417       -13.3177 
  49   2.0000      -0.488395       -13.2899 
  50   2.0000      -0.474680       -12.9167 
  51   2.0000      -0.473328       -12.8799 
  52   2.0000      -0.470792       -12.8109 
  53   2.0000      -0.463041       -12.6000 
  54   2.0000      -0.456265       -12.4156 
  55   2.0000      -0.446236       -12.1427 
  56   2.0000      -0.437486       -11.9046 
  57   2.0000      -0.433517       -11.7966 
  58   2.0000      -0.357480        -9.7275 
  59   2.0000      -0.352447        -9.5906 
  60   2.0000      -0.305256        -8.3065 
  61   2.0000      -0.304177        -8.2771 
  62   0.0000       0.006727         0.1831 
  63   0.0000       0.008821         0.2400 
  64   0.0000       0.054217         1.4753 
  65   0.0000       0.065375         1.7789 
  66   0.0000       0.071002         1.9321 
  67   0.0000       0.074287         2.0215 
  68   0.0000       0.084498         2.2993 
  69   0.0000       0.085713         2.3324 
  70   0.0000       0.099974         2.7204 
  71   0.0000       0.102783         2.7969 
  72   0.0000       0.107079         2.9138 
  73   0.0000       0.108796         2.9605 
  74   0.0000       0.122473         3.3327 
  75   0.0000       0.123758         3.3676 
  76   0.0000       0.139292         3.7903 
  77   0.0000       0.139847         3.8054 
  78   0.0000       0.156854         4.2682 
  79   0.0000       0.158428         4.3111 
  80   0.0000       0.164628         4.4797 
  81   0.0000       0.165173         4.4946 
  82   0.0000       0.173869         4.7312 
  83   0.0000       0.176906         4.8139 
  84   0.0000       0.202693         5.5156 
  85   0.0000       0.204491         5.5645 
  86   0.0000       0.227672         6.1953 
  87   0.0000       0.228640         6.2216 
  88   0.0000       0.230154         6.2628 
  89   0.0000       0.235122         6.3980 
  90   0.0000       0.235811         6.4167 
  91   0.0000       0.236322         6.4306 
  92   0.0000       0.236588         6.4379 
  93   0.0000       0.238107         6.4792 
  94   0.0000       0.238600         6.4926 
  95   0.0000       0.238872         6.5000 
  96   0.0000       0.239209         6.5092 
  97   0.0000       0.242055         6.5866 
  98   0.0000       0.242403         6.5961 
  99   0.0000       0.243249         6.6191 
 100   0.0000       0.244318         6.6482 
 101   0.0000       0.244659         6.6575 
 102   0.0000       0.255741         6.9591 
 103   0.0000       0.260388         7.0855 
 104   0.0000       0.265935         7.2365 
 105   0.0000       0.267616         7.2822 
 106   0.0000       0.270084         7.3494 
 107   0.0000       0.281818         7.6687 
 108   0.0000       0.294471         8.0130 
 109   0.0000       0.297719         8.1013 
 110   0.0000       0.309349         8.4178 
 111   0.0000       0.311140         8.4666 
 112   0.0000       0.339013         9.2250 
 113   0.0000       0.339785         9.2460 
 114   0.0000       0.360317         9.8047 
 115   0.0000       0.365690         9.9509 
 116   0.0000       0.410806        11.1786 
 117   0.0000       0.420415        11.4401 
 118   0.0000       0.425009        11.5651 
 119   0.0000       0.433441        11.7945 
-------
TIMINGS
-------

Total SCF time: 0 days 0 hours 0 min 0 sec 

Total time                  ....       0.162 sec
Sum of individual times     ....       0.113 sec  ( 69.9%)

Fock matrix formation       ....       0.056 sec  ( 34.6%)
Diagonalization             ....       0.026 sec  ( 16.1%)
Density matrix formation    ....       0.005 sec  (  3.3%)
Population analysis         ....       0.000 sec  (  0.0%)
Initial guess               ....       0.003 sec  (  1.8%)
Orbital Transformation      ....       0.000 sec  (  0.0%)
Orbital Orthonormalization  ....       0.000 sec  (  0.0%)
DIIS solution               ....       0.017 sec  ( 10.6%)
SOSCF solution              ....       0.006 sec  (  3.6%)

-------------------------   --------------------
FINAL SINGLE POINT ENERGY       -18.092641232577
-------------------------   --------------------


                            ***************************************
                            *     ORCA property calculations      *
                            ***************************************

                                    ---------------------
                                    Active property flags
                                    ---------------------
   (+) Dipole Moment


------------------------------------------------------------------------------
                       ORCA ELECTRIC PROPERTIES CALCULATION
------------------------------------------------------------------------------

Dipole Moment Calculation                       ... on
Quadrupole Moment Calculation                   ... off
Polarizability Calculation                      ... off
GBWName                                         ... /Users/mattyjones/GoogleDrive/Boise/Code/MorphCT/tests/output_EZ/donor_polymer/chromophores/input_orca/pair/00000-00011.gbw
Electron density file                           ... /Users/mattyjones/GoogleDrive/Boise/Code/MorphCT/tests/output_EZ/donor_polymer/chromophores/input_orca/pair/00000-00011.scfp.tmp

-------------
DIPOLE MOMENT
-------------
                                X             Y             Z
Electronic contribution:    -37.53349     -57.67223      79.66790
Nuclear contribution   :     19.92191      31.35279     -43.02306
                        -----------------------------------------
Total Dipole Moment    :    -17.61158     -26.31943      36.64484
                        -----------------------------------------
Magnitude (a.u.)       :     48.43268
Magnitude (Debye)      :    123.10610


Timings for individual modules:

Sum of individual times         ...        0.271 sec (=   0.005 min)
STO integral calculation        ...        0.072 sec (=   0.001 min)  26.4 %
SCF iterations                  ...        0.199 sec (=   0.003 min)  73.6 %
                             ****ORCA TERMINATED NORMALLY****
TOTAL RUN TIME: 0 days 0 hours 0 minutes 0 seconds 696 msec

