
                                 *****************
                                 * O   R   C   A *
                                 *****************

           --- An Ab Initio, DFT and Semiempirical electronic structure package ---

                  #######################################################
                  #                        -***-                        #
                  #  Department of molecular theory and spectroscopy    #
                  #              Directorship: Frank Neese              #
                  # Max Planck Institute for Chemical Energy Conversion #
                  #                  D-45470 Muelheim/Ruhr              #
                  #                       Germany                       #
                  #                                                     #
                  #                  All rights reserved                #
                  #                        -***-                        #
                  #######################################################


                         Program Version 3.0.3 - RELEASE   -


 With contributions from (in alphabetic order):
   Ute Becker             : Parallelization
   Dmytro Bykov           : SCF Hessian
   Dmitry Ganyushin       : Spin-Orbit,Spin-Spin,Magnetic field MRCI
   Andreas Hansen         : Spin unrestricted coupled pair/coupled cluster methods
   Dimitrios Liakos       : Extrapolation schemes; parallel MDCI
   Robert Izsak           : Overlap fitted RIJCOSX, COSX-SCS-MP3
   Christian Kollmar      : KDIIS, OOCD, Brueckner-CCSD(T), CCSD density
   Simone Kossmann        : Meta GGA functionals, TD-DFT gradient, OOMP2, MP2 Hessian
   Taras Petrenko         : DFT Hessian,TD-DFT gradient, ASA and ECA modules, normal mode analysis, Resonance Raman, ABS, FL, XAS/XES, NRVS
   Christoph Reimann      : Effective Core Potentials
   Michael Roemelt        : Restricted open shell CIS
   Christoph Riplinger    : Improved optimizer, TS searches, QM/MM, DLPNO-CCSD
   Barbara Sandhoefer     : DKH picture change effects
   Igor Schapiro          : Molecular dynamics
   Kantharuban Sivalingam : CASSCF convergence, NEVPT2
   Boris Wezisla          : Elementary symmetry handling
   Frank Wennmohs         : Technical directorship


 We gratefully acknowledge several colleagues who have allowed us to
 interface, adapt or use parts of their codes:
   Stefan Grimme, W. Hujo, H. Kruse, T. Risthaus : VdW corrections, initial TS optimization,
                                                   DFT functionals, gCP
   Ed Valeev                                     : LibInt (2-el integral package), F12 methods
   Garnet Chan, S. Sharma, R. Olivares           : DMRG
   Ulf Ekstrom                                   : XCFun DFT Library
   Mihaly Kallay                                 : mrcc  (arbitrary order and MRCC methods)
   Andreas Klamt, Michael Diedenhofen            : otool_cosmo (COSMO solvation model)
   Frank Weinhold                                : gennbo (NPA and NBO analysis)
   Christopher J. Cramer and Donald G. Truhlar   : smd solvation model


 Your calculation uses the libint2 library for the computation of 2-el integrals
 For citations please refer to: http://libint.valeyev.net

 This ORCA versions uses:
   CBLAS   interface :  Fast vector & matrix operations
   LAPACKE interface :  Fast linear algebra routines
   SCALAPACK package :  Parallel linear algebra routines


leaving
================================================================================
                                        WARNINGS
                       Please study these warnings very carefully!
================================================================================
Now building the actual basis set

WARNING: Direct SCF is incompatible with Method<>HF and Method<>DFT
  ===> : conventional SCF is chosen

WARNING: The NDO methods need Guess=HUECKEL or Guess=HCORE or Guess=MOREAD
  ===> : Guess is set to Hueckel

WARNING: The NDO methods need %rel::SOCType==1
  ===> : %rel::SOCType is set to 1

WARNING: The NDO methods cannot have frozencore=1
  ===> : %method FrozenCore=0 end


INFO   : the flag for use of LIBINT has been found!

================================================================================
                                       INPUT FILE
================================================================================
NAME = /Users/mattyjones/GoogleDrive/Boise/Code/MorphCT/tests/output_EZ/donor_polymer/chromophores/input_orca/pair/00001-00029.inp
|  1> # ================================================================
|  2> # Orca input file made by Matty Jones
|  3> # ================================================================
|  4> ! ZINDO/S 
|  5> ! NOPOP
|  6> ! NOMOPRINT
|  7> * xyz 0   1
|  8>  C  -19.43592  -2.60290  24.87923
|  9>  C  -18.28930  -1.85535  25.15189
| 10>  C  -17.34881  -2.51759  26.00112
| 11>  C  -17.75485  -3.79451  26.40106
| 12>  S  -19.23529  -4.03359  25.69285
| 13>  H  -18.10683  -0.80564  24.73726
| 14>  C  -15.94205  -1.78581  26.40268
| 15>  C  -15.16582  -1.69332  27.94855
| 16>  C  -13.58621  -0.97028  28.02498
| 17>  H  -13.12976  -1.24264  26.99257
| 18>  H  -13.05386  -1.62314  28.82803
| 19>  H  -15.06558  -2.75570  28.35612
| 20>  H  -15.84434  -1.06294  28.62756
| 21>  H  -15.11104  -2.26093  25.73010
| 22>  H  -16.03065  -0.66261  26.09741
| 23>  C  -13.10678  0.56986  28.33675
| 24>  C  -12.48183  1.00657  29.86327
| 25>  C  -10.80414  0.89738  30.06110
| 26>  H  -10.45437  -0.17113  29.79168
| 27>  H  -10.53769  1.12712  31.16413
| 28>  H  -10.28281  1.66599  29.37125
| 29>  H  -12.77180  2.10669  30.05074
| 30>  H  -12.97523  0.33503  30.65607
| 31>  H  -14.01170  1.26837  28.15527
| 32>  H  -12.27587  0.84404  27.57626
| 33>  C  19.04878  1.06793  -28.87785
| 34>  C  17.71727  1.34173  -28.56159
| 35>  C  17.49634  1.65145  -27.18336
| 36>  C  18.65925  1.62207  -26.40741
| 37>  S  19.88242  1.22008  -27.45272
| 38>  H  16.87273  1.35524  -29.33010
| 39>  C  16.12134  2.03017  -26.38012
| 40>  C  14.57592  1.29682  -26.04295
| 41>  C  12.97183  1.11067  -26.63082
| 42>  H  12.28199  1.31804  -25.71857
| 43>  H  12.81922  1.96987  -27.38695
| 44>  H  14.90295  0.19173  -25.90195
| 45>  H  14.36214  1.74948  -24.98971
| 46>  H  15.74944  3.02478  -26.88576
| 47>  H  16.45421  2.32676  -25.29538
| 48>  C  12.51299  -0.30962  -27.27988
| 49>  C  12.18926  -0.39898  -28.93073
| 50>  C  12.11959  1.07732  -29.72549
| 51>  H  13.16259  1.57650  -29.70720
| 52>  H  11.34555  1.76020  -29.20060
| 53>  H  11.79186  0.90149  -30.82198
| 54>  H  13.01751  -1.03263  -29.42313
| 55>  H  11.17280  -0.92798  -29.06804
| 56>  H  13.33437  -1.09912  -27.06177
| 57>  H  11.54261  -0.65399  -26.74128
| 58>  H  -20.26103  -2.31642  24.27863
| 59>  H  -17.22694  -4.46854  27.02603
| 60>  H  19.44380  0.81586  -29.82866
| 61>  H  18.74173  1.81610  -25.36859
| 62> *
| 63> 
| 64>                          ****END OF INPUT****
================================================================================

                       ****************************
                       * Single Point Calculation *
                       ****************************

---------------------------------
CARTESIAN COORDINATES (ANGSTROEM)
---------------------------------
  C    -19.435920   -2.602900   24.879230
  C    -18.289300   -1.855350   25.151890
  C    -17.348810   -2.517590   26.001120
  C    -17.754850   -3.794510   26.401060
  S    -19.235290   -4.033590   25.692850
  H    -18.106830   -0.805640   24.737260
  C    -15.942050   -1.785810   26.402680
  C    -15.165820   -1.693320   27.948550
  C    -13.586210   -0.970280   28.024980
  H    -13.129760   -1.242640   26.992570
  H    -13.053860   -1.623140   28.828030
  H    -15.065580   -2.755700   28.356120
  H    -15.844340   -1.062940   28.627560
  H    -15.111040   -2.260930   25.730100
  H    -16.030650   -0.662610   26.097410
  C    -13.106780    0.569860   28.336750
  C    -12.481830    1.006570   29.863270
  C    -10.804140    0.897380   30.061100
  H    -10.454370   -0.171130   29.791680
  H    -10.537690    1.127120   31.164130
  H    -10.282810    1.665990   29.371250
  H    -12.771800    2.106690   30.050740
  H    -12.975230    0.335030   30.656070
  H    -14.011700    1.268370   28.155270
  H    -12.275870    0.844040   27.576260
  C     19.048780    1.067930  -28.877850
  C     17.717270    1.341730  -28.561590
  C     17.496340    1.651450  -27.183360
  C     18.659250    1.622070  -26.407410
  S     19.882420    1.220080  -27.452720
  H     16.872730    1.355240  -29.330100
  C     16.121340    2.030170  -26.380120
  C     14.575920    1.296820  -26.042950
  C     12.971830    1.110670  -26.630820
  H     12.281990    1.318040  -25.718570
  H     12.819220    1.969870  -27.386950
  H     14.902950    0.191730  -25.901950
  H     14.362140    1.749480  -24.989710
  H     15.749440    3.024780  -26.885760
  H     16.454210    2.326760  -25.295380
  C     12.512990   -0.309620  -27.279880
  C     12.189260   -0.398980  -28.930730
  C     12.119590    1.077320  -29.725490
  H     13.162590    1.576500  -29.707200
  H     11.345550    1.760200  -29.200600
  H     11.791860    0.901490  -30.821980
  H     13.017510   -1.032630  -29.423130
  H     11.172800   -0.927980  -29.068040
  H     13.334370   -1.099120  -27.061770
  H     11.542610   -0.653990  -26.741280
  H    -20.261030   -2.316420   24.278630
  H    -17.226940   -4.468540   27.026030
  H     19.443800    0.815860  -29.828660
  H     18.741730    1.816100  -25.368590

----------------------------
CARTESIAN COORDINATES (A.U.)
----------------------------
  NO LB      ZA    FRAG    MASS        X           Y           Z
   0 C     4.0000    0    12.011        -36.728565960802733         -4.918768153983626         47.014931122837623
   1 C     4.0000    0    12.011        -34.561768181125949         -3.506103382570795         47.530183850512593
   2 C     4.0000    0    12.011        -32.784499649434352         -4.757555617498804         49.134995975222537
   3 C     4.0000    0    12.011        -33.551804048851736         -7.170584712425528         49.890773045223000
   4 S     6.0000    0    32.060        -36.349430206554111         -7.622380436523422         48.552450099918630
   5 H     1.0000    0     1.008        -34.216949853469337         -1.522438962532317         46.746646703604817
   6 C     4.0000    0    12.011        -30.126108513279291         -3.374691827217910         49.893834401559950
   7 C     4.0000    0    12.011        -28.659246396345598         -3.199911057091534         52.815105340204802
   8 C     4.0000    0    12.011        -25.674216097942246         -1.833563473221112         52.959537108620395
   9 H     1.0000    0     1.008        -24.811650604113893         -2.348249283055904         51.008564950698762
  10 H     1.0000    0     1.008        -24.668220390549269         -3.067290077012940         54.477081680465858
  11 H     1.0000    0     1.008        -28.469820248681330         -5.207518307246794         53.585301020607083
  12 H     1.0000    0     1.008        -29.941463372733846         -2.008665496790255         54.098248282398664
  13 H     1.0000    0     1.008        -28.555727198729389         -4.272538507966575         48.622842398407201
  14 H     1.0000    0     1.008        -30.293538248744717         -1.252151433597561         49.316957704657810
  15 C     4.0000    0    12.011        -24.768224697556384          1.076879334676365         53.548697025393025
  16 C     4.0000    0    12.011        -23.587240350162297          1.902141634621114         56.433401763346495
  17 C     4.0000    0    12.011        -20.416865712543952          1.695802438058253         56.807246284420138
  18 H     1.0000    0     1.008        -19.755896202682319         -0.323388833297944         56.298116269419076
  19 H     1.0000    0     1.008        -19.913348184160633          2.129948120065321         58.891670901919298
  20 H     1.0000    0     1.008        -19.431694787146785          3.148264841851466         55.503618710934560
  21 H     1.0000    0     1.008        -24.135204237215444          3.981067149070562         56.787668721672716
  22 H     1.0000    0     1.008        -24.519631224639042          0.633114946647637         57.931576642319264
  23 H     1.0000    0     1.008        -26.478275670664402          2.396871936481698         53.205749526609004
  24 H     1.0000    0     1.008        -23.198032355619876          1.595004446074893         52.111579197807259
  25 C     4.0000    0    12.011         35.996977385316463          2.018095230198522        -54.571227836457815
  26 C     4.0000    0    12.011         33.480788140738973          2.535502245666161        -53.973583049343880
  27 C     4.0000    0    12.011         33.063290945971751          3.120788223864251        -51.369105799789594
  28 C     4.0000    0    12.011         35.260872364370115          3.065268070049644        -49.902772806173395
  29 S     6.0000    0    32.060         37.572328679598570          2.305617061474641        -51.878122431222621
  30 H     1.0000    0     1.008         31.884838831597122          2.561032445735437        -55.425856480523706
  31 C     4.0000    0    12.011         30.464917511830031          3.836465305302907        -49.851202179978692
  32 C     4.0000    0    12.011         27.544496949945451          2.450634644991758        -49.214043219404466
  33 C     4.0000    0    12.011         24.513206155783710          2.098862125162317        -50.324956521752746
  34 H     1.0000    0     1.008         23.209597479559473          2.490734633553567        -48.601053856083084
  35 H     1.0000    0     1.008         24.224815050485986          3.722514819427456        -51.753835143394618
  36 H     1.0000    0     1.008         28.162494087521718          0.362317191656722        -48.947591834521560
  37 H     1.0000    0     1.008         27.140511297035765          3.306038076772551        -47.223708066113240
  38 H     1.0000    0     1.008         29.762128362624718          5.716005815362323        -50.806723302334632
  39 H     1.0000    0     1.008         31.093950650028397          4.396939179362612        -47.801340653468955
  40 C     4.0000    0    12.011         23.646124216495284         -0.585097005584698        -51.551502166235672
  41 C     4.0000    0    12.011         23.034363175160959         -0.753962932911901        -54.671156554419575
  42 C     4.0000    0    12.011         22.902705955410664          2.035839758596043        -56.173035296614827
  43 H     1.0000    0     1.008         24.873690313090528          2.979153250126853        -56.138472205625405
  44 H     1.0000    0     1.008         21.439982338710255          3.326295940928187        -55.181136946180906
  45 H     1.0000    0     1.008         22.283386009540649          1.703569212468669        -58.245101105198138
  46 H     1.0000    0     1.008         24.599528845581233         -1.951387897671102        -55.601657702762395
  47 H     1.0000    0     1.008         21.113532149075361         -1.753628057756243        -54.930634849868298
  48 H     1.0000    0     1.008         25.198307468375521         -2.077035788315526        -51.139333999166112
  49 H     1.0000    0     1.008         21.812371770660778         -1.235861994323159        -50.533695670505686
  50 H     1.0000    0     1.008        -38.287797891162498         -4.377399411137866         45.879961606804521
  51 H     1.0000    0     1.008        -32.554198725493364         -8.444316818472469         51.071795187139763
  52 H     1.0000    0     1.008         36.743457002738033          1.541751963620992        -56.367998341851482
  53 H     1.0000    0     1.008         35.416736975895944          3.431931631814385        -47.939687503733325

--------------------------------
INTERNAL COORDINATES (ANGSTROEM)
--------------------------------
 C      0   0   0   0.000000     0.000     0.000
 C      1   0   0   1.395676     0.000     0.000
 C      2   1   0   1.429781   114.102     0.000
 C      3   2   1   1.398337   113.693     0.000
 S      1   2   3   1.658042   105.480     0.000
 H      2   1   3   1.143287   123.508   179.928
 C      3   2   1   1.635765   120.285   179.222
 C      7   3   2   1.732282   128.926   135.995
 C      8   7   3   1.738907   117.935   174.106
 H      9   8   7   1.161205   102.737   328.287
 H      9   8   7   1.163835   102.274   216.809
 H      8   7   3   1.142284   107.943    52.887
 H      8   7   3   1.148400   106.989   293.864
 H      7   3   2   1.169906   106.742   258.235
 H      7   3   2   1.167312   107.517    12.897
 C      9   8   7   1.642889   131.546    93.422
 C     16   9   8   1.706324   121.103   102.238
 C     17  16   9   1.692839   116.809    91.345
 H     18  17  16   1.156131   109.403   305.099
 H     18  17  16   1.157779   109.064   185.207
 H     18  17  16   1.156909   109.515    65.486
 H     17  16   9   1.153036   107.310   211.339
 H     17  16   9   1.150192   108.065   329.572
 H     16   9   8   1.157468   107.929   340.281
 H     16   9   8   1.159280   107.842   223.428
 C     14   7   3  64.498084   147.351    93.126
 C     26  14   7   1.395674    46.607   322.057
 C     27  26  14   1.429774   114.101    23.937
 C     28  27  26   1.398328   113.694     0.000
 S     26  14   7   1.658041    62.825   115.983
 H     27  26  14   1.141945   123.737   202.005
 C     28  27  26   1.636841   130.765   179.957
 C     32  28  27   1.743505   137.917    60.190
 C     33  32  28   1.718531   143.781   271.099
 H     34  33  32   1.162360   105.436   227.052
 H     34  33  32   1.154663   105.472   340.776
 H     33  32  28   1.161057   100.030    37.083
 H     33  32  28   1.166155   100.014   147.715
 H     32  28  27   1.176108   104.496   298.139
 H     32  28  27   1.172787   105.901   186.582
 C     34  33  32   1.627586   119.609   105.954
 C     41  34  33   1.684664   119.422   248.495
 C     42  41  34   1.678082   115.177   349.924
 H     43  42  41   1.156445   109.561    65.463
 H     43  42  41   1.158004   109.382   304.879
 H     43  42  41   1.157849   109.067   185.454
 H     42  41  34   1.153242   108.031   110.881
 H     42  41  34   1.154074   108.068   228.989
 H     41  34  33   1.159977   108.622    10.797
 H     41  34  33   1.162032   108.010   127.231
 H      1   2   3   1.059999   127.260   180.001
 H      4   3   2   1.059997   127.206   180.000
 H     26  14   7   1.060009   160.828   242.552
 H     29  28  27   1.059999   127.207   180.000

---------------------------
INTERNAL COORDINATES (A.U.)
---------------------------
 C      0   0   0   0.000000     0.000     0.000
 C      1   0   0   2.637446     0.000     0.000
 C      2   1   0   2.701895   114.102     0.000
 C      3   2   1   2.642473   113.693     0.000
 S      1   2   3   3.133246   105.480     0.000
 H      2   1   3   2.160499   123.508   179.928
 C      3   2   1   3.091147   120.285   179.222
 C      7   3   2   3.273539   128.926   135.995
 C      8   7   3   3.286057   117.935   174.106
 H      9   8   7   2.194359   102.737   328.287
 H      9   8   7   2.199329   102.274   216.809
 H      8   7   3   2.158604   107.943    52.887
 H      8   7   3   2.170162   106.989   293.864
 H      7   3   2   2.210802   106.742   258.235
 H      7   3   2   2.205901   107.517    12.897
 C      9   8   7   3.104611   131.546    93.422
 C     16   9   8   3.224485   121.103   102.238
 C     17  16   9   3.199002   116.809    91.345
 H     18  17  16   2.184772   109.403   305.099
 H     18  17  16   2.187884   109.064   185.207
 H     18  17  16   2.186242   109.515    65.486
 H     17  16   9   2.178922   107.310   211.339
 H     17  16   9   2.173548   108.065   329.572
 H     16   9   8   2.187297   107.929   340.281
 H     16   9   8   2.190723   107.842   223.428
 C     14   7   3 121.883715   147.351    93.126
 C     26  14   7   2.637441    46.607   322.057
 C     27  26  14   2.701882   114.101    23.937
 C     28  27  26   2.642457   113.694     0.000
 S     26  14   7   3.133244    62.825   115.983
 H     27  26  14   2.157963   123.737   202.005
 C     28  27  26   3.093181   130.765   179.957
 C     32  28  27   3.294746   137.917    60.190
 C     33  32  28   3.247552   143.781   271.099
 H     34  33  32   2.196543   105.436   227.052
 H     34  33  32   2.181997   105.472   340.776
 H     33  32  28   2.194080   100.030    37.083
 H     33  32  28   2.203714   100.014   147.715
 H     32  28  27   2.222522   104.496   298.139
 H     32  28  27   2.216246   105.901   186.582
 C     34  33  32   3.075692   119.609   105.954
 C     41  34  33   3.183553   119.422   248.495
 C     42  41  34   3.171115   115.177   349.924
 H     43  42  41   2.185364   109.561    65.463
 H     43  42  41   2.188310   109.382   304.879
 H     43  42  41   2.188017   109.067   185.454
 H     42  41  34   2.179312   108.031   110.881
 H     42  41  34   2.180883   108.068   228.989
 H     41  34  33   2.192039   108.622    10.797
 H     41  34  33   2.195922   108.010   127.231
 H      1   2   3   2.003108   127.260   180.001
 H      4   3   2   2.003103   127.206   180.000
 H     26  14   7   2.003127   160.828   242.552
 H     29  28  27   2.003108   127.207   180.000

----------------------------
SLATER BASIS SET DIM= 120
----------------------------
  0 C     2 shells
 l=0 nsto= 1
    2       1.625000000000        1.000000000000
 l=1 nsto= 1
    2       1.625000000000        1.000000000000
  1 C     2 shells
 l=0 nsto= 1
    2       1.625000000000        1.000000000000
 l=1 nsto= 1
    2       1.625000000000        1.000000000000
  2 C     2 shells
 l=0 nsto= 1
    2       1.625000000000        1.000000000000
 l=1 nsto= 1
    2       1.625000000000        1.000000000000
  3 C     2 shells
 l=0 nsto= 1
    2       1.625000000000        1.000000000000
 l=1 nsto= 1
    2       1.625000000000        1.000000000000
  4 S     2 shells
 l=0 nsto= 1
    3       1.925000000000        1.000000000000
 l=1 nsto= 1
    3       1.925000000000        1.000000000000
  5 H     1 shells
 l=0 nsto= 1
    1       1.200000000000        1.000000000000
  6 C     2 shells
 l=0 nsto= 1
    2       1.625000000000        1.000000000000
 l=1 nsto= 1
    2       1.625000000000        1.000000000000
  7 C     2 shells
 l=0 nsto= 1
    2       1.625000000000        1.000000000000
 l=1 nsto= 1
    2       1.625000000000        1.000000000000
  8 C     2 shells
 l=0 nsto= 1
    2       1.625000000000        1.000000000000
 l=1 nsto= 1
    2       1.625000000000        1.000000000000
  9 H     1 shells
 l=0 nsto= 1
    1       1.200000000000        1.000000000000
 10 H     1 shells
 l=0 nsto= 1
    1       1.200000000000        1.000000000000
 11 H     1 shells
 l=0 nsto= 1
    1       1.200000000000        1.000000000000
 12 H     1 shells
 l=0 nsto= 1
    1       1.200000000000        1.000000000000
 13 H     1 shells
 l=0 nsto= 1
    1       1.200000000000        1.000000000000
 14 H     1 shells
 l=0 nsto= 1
    1       1.200000000000        1.000000000000
 15 C     2 shells
 l=0 nsto= 1
    2       1.625000000000        1.000000000000
 l=1 nsto= 1
    2       1.625000000000        1.000000000000
 16 C     2 shells
 l=0 nsto= 1
    2       1.625000000000        1.000000000000
 l=1 nsto= 1
    2       1.625000000000        1.000000000000
 17 C     2 shells
 l=0 nsto= 1
    2       1.625000000000        1.000000000000
 l=1 nsto= 1
    2       1.625000000000        1.000000000000
 18 H     1 shells
 l=0 nsto= 1
    1       1.200000000000        1.000000000000
 19 H     1 shells
 l=0 nsto= 1
    1       1.200000000000        1.000000000000
 20 H     1 shells
 l=0 nsto= 1
    1       1.200000000000        1.000000000000
 21 H     1 shells
 l=0 nsto= 1
    1       1.200000000000        1.000000000000
 22 H     1 shells
 l=0 nsto= 1
    1       1.200000000000        1.000000000000
 23 H     1 shells
 l=0 nsto= 1
    1       1.200000000000        1.000000000000
 24 H     1 shells
 l=0 nsto= 1
    1       1.200000000000        1.000000000000
 25 C     2 shells
 l=0 nsto= 1
    2       1.625000000000        1.000000000000
 l=1 nsto= 1
    2       1.625000000000        1.000000000000
 26 C     2 shells
 l=0 nsto= 1
    2       1.625000000000        1.000000000000
 l=1 nsto= 1
    2       1.625000000000        1.000000000000
 27 C     2 shells
 l=0 nsto= 1
    2       1.625000000000        1.000000000000
 l=1 nsto= 1
    2       1.625000000000        1.000000000000
 28 C     2 shells
 l=0 nsto= 1
    2       1.625000000000        1.000000000000
 l=1 nsto= 1
    2       1.625000000000        1.000000000000
 29 S     2 shells
 l=0 nsto= 1
    3       1.925000000000        1.000000000000
 l=1 nsto= 1
    3       1.925000000000        1.000000000000
 30 H     1 shells
 l=0 nsto= 1
    1       1.200000000000        1.000000000000
 31 C     2 shells
 l=0 nsto= 1
    2       1.625000000000        1.000000000000
 l=1 nsto= 1
    2       1.625000000000        1.000000000000
 32 C     2 shells
 l=0 nsto= 1
    2       1.625000000000        1.000000000000
 l=1 nsto= 1
    2       1.625000000000        1.000000000000
 33 C     2 shells
 l=0 nsto= 1
    2       1.625000000000        1.000000000000
 l=1 nsto= 1
    2       1.625000000000        1.000000000000
 34 H     1 shells
 l=0 nsto= 1
    1       1.200000000000        1.000000000000
 35 H     1 shells
 l=0 nsto= 1
    1       1.200000000000        1.000000000000
 36 H     1 shells
 l=0 nsto= 1
    1       1.200000000000        1.000000000000
 37 H     1 shells
 l=0 nsto= 1
    1       1.200000000000        1.000000000000
 38 H     1 shells
 l=0 nsto= 1
    1       1.200000000000        1.000000000000
 39 H     1 shells
 l=0 nsto= 1
    1       1.200000000000        1.000000000000
 40 C     2 shells
 l=0 nsto= 1
    2       1.625000000000        1.000000000000
 l=1 nsto= 1
    2       1.625000000000        1.000000000000
 41 C     2 shells
 l=0 nsto= 1
    2       1.625000000000        1.000000000000
 l=1 nsto= 1
    2       1.625000000000        1.000000000000
 42 C     2 shells
 l=0 nsto= 1
    2       1.625000000000        1.000000000000
 l=1 nsto= 1
    2       1.625000000000        1.000000000000
 43 H     1 shells
 l=0 nsto= 1
    1       1.200000000000        1.000000000000
 44 H     1 shells
 l=0 nsto= 1
    1       1.200000000000        1.000000000000
 45 H     1 shells
 l=0 nsto= 1
    1       1.200000000000        1.000000000000
 46 H     1 shells
 l=0 nsto= 1
    1       1.200000000000        1.000000000000
 47 H     1 shells
 l=0 nsto= 1
    1       1.200000000000        1.000000000000
 48 H     1 shells
 l=0 nsto= 1
    1       1.200000000000        1.000000000000
 49 H     1 shells
 l=0 nsto= 1
    1       1.200000000000        1.000000000000
 50 H     1 shells
 l=0 nsto= 1
    1       1.200000000000        1.000000000000
 51 H     1 shells
 l=0 nsto= 1
    1       1.200000000000        1.000000000000
 52 H     1 shells
 l=0 nsto= 1
    1       1.200000000000        1.000000000000
 53 H     1 shells
 l=0 nsto= 1
    1       1.200000000000        1.000000000000
------------------------------------------------------------------------------
                           ORCA NDO INTEGRAL CALCULATION
------------------------------------------------------------------------------

--------------
NDO PARAMETERS
--------------

Gamma integral treatment              ... Mataga-Nishimoto
Nuclear repulsuion treatment          ... Direct (ZA*ZB/RAB)
Interaction factors:
s-s (sigma) =    1.0000
s-p (sigma) =    1.0000
s-d (sigma) =    1.0000
p-p (sigma) =    1.2670  p-p(pi) =    0.5850
p-d (sigma) =    1.0000  p-d(pi) =    1.0000
d-d (sigma) =    1.0000  d-d(pi) =    1.0000 d-d (delta) =    1.0000

fGamma parameter for Mataga-Nishimoto gamma integrals:    1.2000

--------------------------
Parameters for Element H :
--------------------------
 One-electron parameters (in eV)
  U(s)  =   -13.060000 Beta(s) =    12.000000 Neff(s) =     1.000000
 One-center electron repulsion parameters (in eV)
  G(s,s)=    12.850000
--------------------------
Parameters for Element C :
--------------------------
 One-electron parameters (in eV)
  U(s)  =   -50.870766 Beta(s) =    17.000000 Neff(s) =     2.000000
  U(p)  =   -41.599980 Beta(p) =    17.000000 Neff(p) =     2.000000 
 One-center electron repulsion parameters (in eV)
  G(s,s)=    11.110000
  G(s,p)=    11.110000 G(p,p)  =    11.110000
 Slater-Condon parameters (in eV)
 F2(p,p)=     4.5098 G1(s,p)=    6.8977
--------------------------
Parameters for Element S :
--------------------------
 One-electron parameters (in eV)
  U(s)  =   -69.509597 Beta(s) =    15.000000 Neff(s) =     2.000000
  U(p)  =   -60.725746 Beta(p) =    15.000000 Neff(p) =     4.000000 
 One-center electron repulsion parameters (in eV)
  G(s,s)=    10.090000
  G(s,p)=    10.090000 G(p,p)  =    10.090000
 Slater-Condon parameters (in eV)
 F2(p,p)=     4.5377 G1(s,p)=    3.0756

 Number of atoms                    ....   54
 Number of basis functions          ....  120

 Overlap integrals                  .... done
 One electron matrix                .... done
 Nuclear repulsion                  .... done
 Integral list                      .... done
 Electron-electron repulsion        .... done
-------------------------------------------------------------------------------
                                 ORCA SCF
-------------------------------------------------------------------------------

------------
SCF SETTINGS
------------
Hamiltonian:
 ZDO-Hamiltonian        Method          .... INDO


General Settings:
 Integral files         IntName         .... /Users/mattyjones/GoogleDrive/Boise/Code/MorphCT/tests/output_EZ/donor_polymer/chromophores/input_orca/pair/00001-00029
 Hartree-Fock type      HFTyp           .... RHF
 Total Charge           Charge          ....    0
 Multiplicity           Mult            ....    1
 Number of Electrons    NEL             ....  124
 Basis Dimension        Dim             ....  120
 Nuclear Repulsion      ENuc            ....    608.5869303315 Eh

Convergence Acceleration:
 DIIS                   CNVDIIS         .... on
   Start iteration      DIISMaxIt       ....    12
   Startup error        DIISStart       ....  0.200000
   # of expansion vecs  DIISMaxEq       ....     5
   Bias factor          DIISBfac        ....   1.050
   Max. coefficient     DIISMaxC        ....  10.000
 Newton-Raphson         CNVNR           .... off
 SOSCF                  CNVSOSCF        .... on
   Start iteration      SOSCFMaxIt      ....   150
   Startup grad/error   SOSCFStart      ....  0.003300
 Level Shifting         CNVShift        .... on
   Level shift para.    LevelShift      ....    0.2500
   Turn off err/grad.   ShiftErr        ....    0.0010
 Zerner damping         CNVZerner       .... off
 Static damping         CNVDamp         .... on
   Fraction old density DampFac         ....    0.7000
   Max. Damping (<1)    DampMax         ....    0.9800
   Min. Damping (>=0)   DampMin         ....    0.0000
   Turn off err/grad.   DampErr         ....    0.1000
 Fernandez-Rico         CNVRico         .... off

SCF Procedure:
 Maximum # iterations   MaxIter         ....   125
 SCF integral mode      SCFMode         .... Conventional
 Integral Buffer length BufferLength    .... 1048576
 Integral index format  IndFormat       ....     0
 Integral value format  ValFormat       ....     0
 Integral Storage       Thresh          ....  1.000e-08 Eh

Convergence Tolerance:
 Convergence Check Mode ConvCheckMode   .... Total+1el-Energy
 Energy Change          TolE            ....  1.000e-06 Eh
 1-El. energy change                    ....  1.000e-03 Eh
 Orbital Gradient       TolG            ....  5.000e-05
 Orbital Rotation angle TolX            ....  5.000e-05
 DIIS Error             TolErr          ....  1.000e-06


Diagonalization of the overlap matrix:
Smallest eigenvalue                        ... 1.698e-01
Time for diagonalization                   ...    0.003 sec
Threshold for overlap eigenvalues          ... 1.000e-08
Number of eigenvalues below threshold      ... 0
Time for construction of square roots      ...    0.000 sec
Total time needed                          ...    0.004 sec

-------------------------------
INITIAL GUESS: EXTENDED HUECKEL
-------------------------------
EHT matrix was read from disk
EHT matrix was diagonalized
Initial density was built
                      ------------------
                      INITIAL GUESS DONE
                      ------------------

 InCore treatment chosen:
   Memory dedicated               ...    1024 MB
   Memory needed                  ...      0 MB
   Number of tiny    integrals    ...       0
   Number of small   integrals    ...       0
   Number of regular integrals    ...    7392

--------------
SCF ITERATIONS
--------------
ITER       Energy         Delta-E        Max-DP      RMS-DP      [F,P]     Damp
  0    -22.7740124969   0.000000000000 0.04478769  0.00144679  0.0842563 0.7000
  1    -22.8158386450  -0.041826148104 0.04416036  0.00136339  0.0645784 0.7000
                               ***Turning on DIIS***
  2    -22.8467853637  -0.030946718729 0.11781103  0.00350236  0.0469623 0.0000
  3    -22.9289376366  -0.082152272954 0.02381920  0.00073388  0.0193003 0.0000
  4    -22.9124014722   0.016536164420 0.01595690  0.00050154  0.0082996 0.0000
  5    -22.9295392928  -0.017137820582 0.01125276  0.00033857  0.0049697 0.0000
  6    -22.9318158159  -0.002276523056 0.00837506  0.00023948  0.0030587 0.0000
                      *** Initiating the SOSCF procedure ***
                           *** Shutting down DIIS ***
                      *** Re-Reading the Fockian *** 
                      *** Removing any level shift *** 
ITER      Energy       Delta-E        Grad      Rot      Max-DP    RMS-DP
  7    -22.92785998   0.0039558388  0.003007  0.003007  0.005026  0.000135
  8    -22.92617838   0.0016815988  0.000803  0.002200  0.002515  0.000062
  9    -22.92619284  -0.0000144581  0.000354  0.002153  0.002800  0.000066
 10    -22.92619812  -0.0000052863  0.000029  0.000063  0.000142  0.000004
                 **** Energy Check signals convergence ****
              ***Rediagonalizing the Fockian in SOSCF/NRSCF***

               *****************************************************
               *                     SUCCESS                       *
               *           SCF CONVERGED AFTER  11 CYCLES          *
               *****************************************************


----------------
TOTAL SCF ENERGY
----------------

Total Energy       :          -22.92619817 Eh            -623.85357 eV

Components:
Nuclear Repulsion  :          608.58693033 Eh           16560.49229 eV
Electronic Energy  :         -631.51312850 Eh          -17184.34586 eV

One Electron Energy:        -1172.83288531 Eh          -31914.40531 eV
Two Electron Energy:          541.31975681 Eh           14730.05944 eV


---------------
SCF CONVERGENCE
---------------

  Last Energy change         ...   -4.5074e-08  Tolerance :   1.0000e-06
  Last MAX-Density change    ...    4.4751e-05  Tolerance :   1.0000e-05
  Last RMS-Density change    ...    1.1821e-06  Tolerance :   1.0000e-06
  Last Orbital Gradient      ...    8.5810e-06  Tolerance :   5.0000e-05
  Last Orbital Rotation      ...    2.0758e-05  Tolerance :   5.0000e-05

             **** THE GBW FILE WAS UPDATED (/Users/mattyjones/GoogleDrive/Boise/Code/MorphCT/tests/output_EZ/donor_polymer/chromophores/input_orca/pair/00001-00029.gbw) ****
             **** DENSITY FILE WAS UPDATED (/Users/mattyjones/GoogleDrive/Boise/Code/MorphCT/tests/output_EZ/donor_polymer/chromophores/input_orca/pair/00001-00029.scfp.tmp) ****
             **** ENERGY FILE WAS UPDATED (/Users/mattyjones/GoogleDrive/Boise/Code/MorphCT/tests/output_EZ/donor_polymer/chromophores/input_orca/pair/00001-00029.en.tmp) ****
----------------
ORBITAL ENERGIES
----------------

  NO   OCC          E(Eh)            E(eV) 
   0   2.0000      -1.555258       -42.3207 
   1   2.0000      -1.554238       -42.2930 
   2   2.0000      -1.396172       -37.9918 
   3   2.0000      -1.374757       -37.4090 
   4   2.0000      -1.282843       -34.9079 
   5   2.0000      -1.277954       -34.7749 
   6   2.0000      -1.187467       -32.3126 
   7   2.0000      -1.173180       -31.9239 
   8   2.0000      -1.109854       -30.2007 
   9   2.0000      -1.106533       -30.1103 
  10   2.0000      -1.062699       -28.9175 
  11   2.0000      -1.051532       -28.6136 
  12   2.0000      -0.990906       -26.9639 
  13   2.0000      -0.959390       -26.1063 
  14   2.0000      -0.906719       -24.6731 
  15   2.0000      -0.903447       -24.5840 
  16   2.0000      -0.839927       -22.8556 
  17   2.0000      -0.836562       -22.7640 
  18   2.0000      -0.832677       -22.6583 
  19   2.0000      -0.823124       -22.3983 
  20   2.0000      -0.786673       -21.4065 
  21   2.0000      -0.775856       -21.1121 
  22   2.0000      -0.724660       -19.7190 
  23   2.0000      -0.722042       -19.6478 
  24   2.0000      -0.704799       -19.1786 
  25   2.0000      -0.682436       -18.5700 
  26   2.0000      -0.675768       -18.3886 
  27   2.0000      -0.669910       -18.2292 
  28   2.0000      -0.638052       -17.3623 
  29   2.0000      -0.633195       -17.2301 
  30   2.0000      -0.623042       -16.9538 
  31   2.0000      -0.620754       -16.8916 
  32   2.0000      -0.590740       -16.0749 
  33   2.0000      -0.589896       -16.0519 
  34   2.0000      -0.576434       -15.6856 
  35   2.0000      -0.571198       -15.5431 
  36   2.0000      -0.566721       -15.4213 
  37   2.0000      -0.558423       -15.1955 
  38   2.0000      -0.556600       -15.1459 
  39   2.0000      -0.549396       -14.9498 
  40   2.0000      -0.534685       -14.5495 
  41   2.0000      -0.529646       -14.4124 
  42   2.0000      -0.521042       -14.1783 
  43   2.0000      -0.515681       -14.0324 
  44   2.0000      -0.512437       -13.9441 
  45   2.0000      -0.503405       -13.6983 
  46   2.0000      -0.499817       -13.6007 
  47   2.0000      -0.497610       -13.5406 
  48   2.0000      -0.490791       -13.3551 
  49   2.0000      -0.489712       -13.3257 
  50   2.0000      -0.487057       -13.2535 
  51   2.0000      -0.470267       -12.7966 
  52   2.0000      -0.461461       -12.5570 
  53   2.0000      -0.457443       -12.4477 
  54   2.0000      -0.451228       -12.2785 
  55   2.0000      -0.439131       -11.9494 
  56   2.0000      -0.436265       -11.8714 
  57   2.0000      -0.430286       -11.7087 
  58   2.0000      -0.358232        -9.7480 
  59   2.0000      -0.357352        -9.7240 
  60   2.0000      -0.305677        -8.3179 
  61   2.0000      -0.305616        -8.3162 
  62   0.0000       0.005729         0.1559 
  63   0.0000       0.006693         0.1821 
  64   0.0000       0.040017         1.0889 
  65   0.0000       0.054420         1.4808 
  66   0.0000       0.072807         1.9812 
  67   0.0000       0.073328         1.9954 
  68   0.0000       0.081261         2.2112 
  69   0.0000       0.084798         2.3075 
  70   0.0000       0.099260         2.7010 
  71   0.0000       0.101331         2.7574 
  72   0.0000       0.106285         2.8922 
  73   0.0000       0.106337         2.8936 
  74   0.0000       0.120802         3.2872 
  75   0.0000       0.122473         3.3327 
  76   0.0000       0.143330         3.9002 
  77   0.0000       0.145705         3.9648 
  78   0.0000       0.158467         4.3121 
  79   0.0000       0.159539         4.3413 
  80   0.0000       0.164307         4.4710 
  81   0.0000       0.165465         4.5025 
  82   0.0000       0.171085         4.6555 
  83   0.0000       0.174046         4.7360 
  84   0.0000       0.202082         5.4989 
  85   0.0000       0.203217         5.5298 
  86   0.0000       0.220263         5.9936 
  87   0.0000       0.229407         6.2425 
  88   0.0000       0.231879         6.3098 
  89   0.0000       0.232603         6.3294 
  90   0.0000       0.233513         6.3542 
  91   0.0000       0.236284         6.4296 
  92   0.0000       0.236773         6.4429 
  93   0.0000       0.238829         6.4989 
  94   0.0000       0.239096         6.5061 
  95   0.0000       0.239163         6.5080 
  96   0.0000       0.239375         6.5137 
  97   0.0000       0.240707         6.5500 
  98   0.0000       0.242153         6.5893 
  99   0.0000       0.243572         6.6279 
 100   0.0000       0.244602         6.6560 
 101   0.0000       0.245265         6.6740 
 102   0.0000       0.254106         6.9146 
 103   0.0000       0.255932         6.9643 
 104   0.0000       0.264554         7.1989 
 105   0.0000       0.265297         7.2191 
 106   0.0000       0.267942         7.2911 
 107   0.0000       0.279191         7.5972 
 108   0.0000       0.297480         8.0948 
 109   0.0000       0.304819         8.2945 
 110   0.0000       0.308860         8.4045 
 111   0.0000       0.309491         8.4217 
 112   0.0000       0.341867         9.3027 
 113   0.0000       0.342862         9.3297 
 114   0.0000       0.358865         9.7652 
 115   0.0000       0.364594         9.9211 
 116   0.0000       0.404826        11.0159 
 117   0.0000       0.412496        11.2246 
 118   0.0000       0.428871        11.6702 
 119   0.0000       0.438113        11.9217 
-------
TIMINGS
-------

Total SCF time: 0 days 0 hours 0 min 0 sec 

Total time                  ....       0.122 sec
Sum of individual times     ....       0.098 sec  ( 80.5%)

Fock matrix formation       ....       0.048 sec  ( 39.7%)
Diagonalization             ....       0.024 sec  ( 19.4%)
Density matrix formation    ....       0.005 sec  (  4.1%)
Population analysis         ....       0.000 sec  (  0.0%)
Initial guess               ....       0.003 sec  (  2.6%)
Orbital Transformation      ....       0.000 sec  (  0.0%)
Orbital Orthonormalization  ....       0.000 sec  (  0.0%)
DIIS solution               ....       0.012 sec  (  9.9%)
SOSCF solution              ....       0.006 sec  (  4.8%)

-------------------------   --------------------
FINAL SINGLE POINT ENERGY       -22.926198167768
-------------------------   --------------------


                            ***************************************
                            *     ORCA property calculations      *
                            ***************************************

                                    ---------------------
                                    Active property flags
                                    ---------------------
   (+) Dipole Moment


------------------------------------------------------------------------------
                       ORCA ELECTRIC PROPERTIES CALCULATION
------------------------------------------------------------------------------

Dipole Moment Calculation                       ... on
Quadrupole Moment Calculation                   ... off
Polarizability Calculation                      ... off
GBWName                                         ... /Users/mattyjones/GoogleDrive/Boise/Code/MorphCT/tests/output_EZ/donor_polymer/chromophores/input_orca/pair/00001-00029.gbw
Electron density file                           ... /Users/mattyjones/GoogleDrive/Boise/Code/MorphCT/tests/output_EZ/donor_polymer/chromophores/input_orca/pair/00001-00029.scfp.tmp

-------------
DIPOLE MOMENT
-------------
                                X             Y             Z
Electronic contribution:     14.63519     -72.10238     -50.80491
Nuclear contribution   :     -6.87311      38.72844      27.28701
                        -----------------------------------------
Total Dipole Moment    :      7.76208     -33.37394     -23.51791
                        -----------------------------------------
Magnitude (a.u.)       :     41.55914
Magnitude (Debye)      :    105.63493


Timings for individual modules:

Sum of individual times         ...        0.221 sec (=   0.004 min)
STO integral calculation        ...        0.049 sec (=   0.001 min)  22.1 %
SCF iterations                  ...        0.172 sec (=   0.003 min)  77.9 %
                             ****ORCA TERMINATED NORMALLY****
TOTAL RUN TIME: 0 days 0 hours 0 minutes 0 seconds 526 msec

