
                                 *****************
                                 * O   R   C   A *
                                 *****************

           --- An Ab Initio, DFT and Semiempirical electronic structure package ---

                  #######################################################
                  #                        -***-                        #
                  #  Department of molecular theory and spectroscopy    #
                  #              Directorship: Frank Neese              #
                  # Max Planck Institute for Chemical Energy Conversion #
                  #                  D-45470 Muelheim/Ruhr              #
                  #                       Germany                       #
                  #                                                     #
                  #                  All rights reserved                #
                  #                        -***-                        #
                  #######################################################


                         Program Version 3.0.3 - RELEASE   -


 With contributions from (in alphabetic order):
   Ute Becker             : Parallelization
   Dmytro Bykov           : SCF Hessian
   Dmitry Ganyushin       : Spin-Orbit,Spin-Spin,Magnetic field MRCI
   Andreas Hansen         : Spin unrestricted coupled pair/coupled cluster methods
   Dimitrios Liakos       : Extrapolation schemes; parallel MDCI
   Robert Izsak           : Overlap fitted RIJCOSX, COSX-SCS-MP3
   Christian Kollmar      : KDIIS, OOCD, Brueckner-CCSD(T), CCSD density
   Simone Kossmann        : Meta GGA functionals, TD-DFT gradient, OOMP2, MP2 Hessian
   Taras Petrenko         : DFT Hessian,TD-DFT gradient, ASA and ECA modules, normal mode analysis, Resonance Raman, ABS, FL, XAS/XES, NRVS
   Christoph Reimann      : Effective Core Potentials
   Michael Roemelt        : Restricted open shell CIS
   Christoph Riplinger    : Improved optimizer, TS searches, QM/MM, DLPNO-CCSD
   Barbara Sandhoefer     : DKH picture change effects
   Igor Schapiro          : Molecular dynamics
   Kantharuban Sivalingam : CASSCF convergence, NEVPT2
   Boris Wezisla          : Elementary symmetry handling
   Frank Wennmohs         : Technical directorship


 We gratefully acknowledge several colleagues who have allowed us to
 interface, adapt or use parts of their codes:
   Stefan Grimme, W. Hujo, H. Kruse, T. Risthaus : VdW corrections, initial TS optimization,
                                                   DFT functionals, gCP
   Ed Valeev                                     : LibInt (2-el integral package), F12 methods
   Garnet Chan, S. Sharma, R. Olivares           : DMRG
   Ulf Ekstrom                                   : XCFun DFT Library
   Mihaly Kallay                                 : mrcc  (arbitrary order and MRCC methods)
   Andreas Klamt, Michael Diedenhofen            : otool_cosmo (COSMO solvation model)
   Frank Weinhold                                : gennbo (NPA and NBO analysis)
   Christopher J. Cramer and Donald G. Truhlar   : smd solvation model


 Your calculation uses the libint2 library for the computation of 2-el integrals
 For citations please refer to: http://libint.valeyev.net

 This ORCA versions uses:
   CBLAS   interface :  Fast vector & matrix operations
   LAPACKE interface :  Fast linear algebra routines
   SCALAPACK package :  Parallel linear algebra routines


leaving
================================================================================
                                        WARNINGS
                       Please study these warnings very carefully!
================================================================================
Now building the actual basis set

WARNING: Direct SCF is incompatible with Method<>HF and Method<>DFT
  ===> : conventional SCF is chosen

WARNING: The NDO methods need Guess=HUECKEL or Guess=HCORE or Guess=MOREAD
  ===> : Guess is set to Hueckel

WARNING: The NDO methods need %rel::SOCType==1
  ===> : %rel::SOCType is set to 1

WARNING: The NDO methods cannot have frozencore=1
  ===> : %method FrozenCore=0 end


INFO   : the flag for use of LIBINT has been found!

================================================================================
                                       INPUT FILE
================================================================================
NAME = /Users/mattyjones/GoogleDrive/Boise/Code/MorphCT/tests/output_EZ/donor_polymer/chromophores/input_orca/pair/00006-00027.inp
|  1> # ================================================================
|  2> # Orca input file made by Matty Jones
|  3> # ================================================================
|  4> ! ZINDO/S 
|  5> ! NOPOP
|  6> ! NOMOPRINT
|  7> * xyz 0   1
|  8>  C  -13.84274  -5.09279  -8.20755
|  9>  C  -14.44498  -6.34895  -8.29272
| 10>  C  -13.90816  -7.31642  -7.38711
| 11>  C  -12.87684  -6.82168  -6.58279
| 12>  S  -12.68612  -5.23559  -7.02819
| 13>  H  -15.28653  -6.60814  -9.02013
| 14>  C  -14.52248  -8.81880  -7.39470
| 15>  C  -14.87501  -9.68518  -5.96783
| 16>  C  -15.52919  -11.25057  -6.14395
| 17>  H  -15.07451  -11.67299  -7.12252
| 18>  H  -15.10361  -11.86796  -5.25821
| 19>  H  -13.89275  -9.84077  -5.39356
| 20>  H  -15.60846  -9.05823  -5.34426
| 21>  H  -13.77985  -9.50984  -7.98075
| 22>  H  -15.52901  -8.80962  -7.98591
| 23>  C  -17.14276  -11.50102  -6.18700
| 24>  C  -17.89460  -11.63811  -7.69811
| 25>  C  -18.55970  -10.22811  -8.32411
| 26>  H  -19.51271  -10.49523  -8.92599
| 27>  H  -17.79244  -9.71591  -9.02197
| 28>  H  -18.83971  -9.51184  -7.45972
| 29>  H  -17.10899  -12.02434  -8.44861
| 30>  H  -18.73976  -12.41766  -7.59936
| 31>  H  -17.37859  -12.48276  -5.61732
| 32>  H  -17.66486  -10.62894  -5.63153
| 33>  C  20.74508  9.01834  6.99207
| 34>  C  19.65976  8.32255  7.52671
| 35>  C  18.61826  9.16282  8.03017
| 36>  C  18.88252  10.52902  7.89239
| 37>  S  20.36996  10.62409  7.16512
| 38>  H  19.15793  7.29610  7.23911
| 39>  C  17.21215  8.71360  8.69288
| 40>  C  16.02574  8.31225  7.53984
| 41>  C  15.15523  9.68002  6.98770
| 42>  H  15.73413  10.61223  7.33196
| 43>  H  15.24487  9.63503  5.82925
| 44>  H  16.53110  7.81065  6.64076
| 45>  H  15.27573  7.59322  8.03088
| 46>  H  16.77968  9.51275  9.40737
| 47>  H  17.38102  7.74808  9.32899
| 48>  C  13.57903  9.88468  7.36140
| 49>  C  12.62097  9.46417  6.02177
| 50>  C  10.95984  9.36477  6.25064
| 51>  H  10.72706  8.44015  6.90761
| 52>  H  10.44399  9.24356  5.22058
| 53>  H  10.57417  10.32246  6.76984
| 54>  H  12.99296  8.44875  5.62530
| 55>  H  12.80168  10.27716  5.22017
| 56>  H  13.27743  9.21462  8.24952
| 57>  H  13.36499  10.98758  7.62620
| 58>  H  -14.07568  -4.22949  -8.77681
| 59>  H  -12.33119  -7.34982  -5.84324
| 60>  H  21.62389  8.60697  6.56536
| 61>  H  18.26205  11.33513  8.19038
| 62> *
| 63> 
| 64>                          ****END OF INPUT****
================================================================================

                       ****************************
                       * Single Point Calculation *
                       ****************************

---------------------------------
CARTESIAN COORDINATES (ANGSTROEM)
---------------------------------
  C    -13.842740   -5.092790   -8.207550
  C    -14.444980   -6.348950   -8.292720
  C    -13.908160   -7.316420   -7.387110
  C    -12.876840   -6.821680   -6.582790
  S    -12.686120   -5.235590   -7.028190
  H    -15.286530   -6.608140   -9.020130
  C    -14.522480   -8.818800   -7.394700
  C    -14.875010   -9.685180   -5.967830
  C    -15.529190  -11.250570   -6.143950
  H    -15.074510  -11.672990   -7.122520
  H    -15.103610  -11.867960   -5.258210
  H    -13.892750   -9.840770   -5.393560
  H    -15.608460   -9.058230   -5.344260
  H    -13.779850   -9.509840   -7.980750
  H    -15.529010   -8.809620   -7.985910
  C    -17.142760  -11.501020   -6.187000
  C    -17.894600  -11.638110   -7.698110
  C    -18.559700  -10.228110   -8.324110
  H    -19.512710  -10.495230   -8.925990
  H    -17.792440   -9.715910   -9.021970
  H    -18.839710   -9.511840   -7.459720
  H    -17.108990  -12.024340   -8.448610
  H    -18.739760  -12.417660   -7.599360
  H    -17.378590  -12.482760   -5.617320
  H    -17.664860  -10.628940   -5.631530
  C     20.745080    9.018340    6.992070
  C     19.659760    8.322550    7.526710
  C     18.618260    9.162820    8.030170
  C     18.882520   10.529020    7.892390
  S     20.369960   10.624090    7.165120
  H     19.157930    7.296100    7.239110
  C     17.212150    8.713600    8.692880
  C     16.025740    8.312250    7.539840
  C     15.155230    9.680020    6.987700
  H     15.734130   10.612230    7.331960
  H     15.244870    9.635030    5.829250
  H     16.531100    7.810650    6.640760
  H     15.275730    7.593220    8.030880
  H     16.779680    9.512750    9.407370
  H     17.381020    7.748080    9.328990
  C     13.579030    9.884680    7.361400
  C     12.620970    9.464170    6.021770
  C     10.959840    9.364770    6.250640
  H     10.727060    8.440150    6.907610
  H     10.443990    9.243560    5.220580
  H     10.574170   10.322460    6.769840
  H     12.992960    8.448750    5.625300
  H     12.801680   10.277160    5.220170
  H     13.277430    9.214620    8.249520
  H     13.364990   10.987580    7.626200
  H    -14.075680   -4.229490   -8.776810
  H    -12.331190   -7.349820   -5.843240
  H     21.623890    8.606970    6.565360
  H     18.262050   11.335130    8.190380

----------------------------
CARTESIAN COORDINATES (A.U.)
----------------------------
  NO LB      ZA    FRAG    MASS        X           Y           Z
   0 C     4.0000    0    12.011        -26.158987543077064         -9.623978357572812        -15.510021730465368
   1 C     4.0000    0    12.011        -27.297056209969799        -11.997776737959331        -15.670969705291441
   2 C     4.0000    0    12.011        -26.282613426758196        -13.826030080744124        -13.959614821151018
   3 C     4.0000    0    12.011        -24.333701070322530        -12.891106973247924        -12.439670297115477
   4 S     6.0000    0    32.060        -23.973292502061071         -9.893831249496767        -13.281354317164002
   5 H     1.0000    0     1.008        -28.887355237971232        -12.487574854610379        -17.045575392367098
   6 C     4.0000    0    12.011        -27.443509985348697        -16.665116829824733        -13.973957842507479
   7 C     4.0000    0    12.011        -28.109695139339959        -18.302337757731429        -11.277564313799264
   8 C     4.0000    0    12.011        -29.345916181628560        -21.260496150510416        -11.610382880505474
   9 H     1.0000    0     1.008        -28.486695503057248        -22.058754264001433        -13.459612183376793
  10 H     1.0000    0     1.008        -28.541686533554355        -22.427194168332058         -9.936576854646065
  11 H     1.0000    0     1.008        -26.253492747034468        -18.596360246908233        -10.192351286872306
  12 H     1.0000    0     1.008        -29.495714772264499        -17.117573958069499        -10.099187788469989
  13 H     1.0000    0     1.008        -26.040142666514758        -17.970993177409678        -15.081431843292028
  14 H     1.0000    0     1.008        -29.345576030924455        -16.647769143915337        -15.091182830143062
  15 C     4.0000    0    12.011        -32.395121579539875        -21.733778060750996        -11.691735590570785
  16 C     4.0000    0    12.011        -33.815893276067229        -21.992840616450255        -14.547319648800526
  17 C     4.0000    0    12.011        -35.072750127738253        -19.328326767621292        -15.730288208635228
  18 H     1.0000    0     1.008        -36.873678030626543        -19.833110412514337        -16.867676574119756
  19 H     1.0000    0     1.008        -33.622838854225833        -18.360409041826827        -17.049052488453516
  20 H     1.0000    0     1.008        -35.601892342497543        -17.974772629677517        -14.096827835735040
  21 H     1.0000    0     1.008        -32.331305527997351        -22.722709541154664        -15.965559112308426
  22 H     1.0000    0     1.008        -35.413014215412119        -23.465976624148571        -14.360709193075802
  23 H     1.0000    0     1.008        -32.840775693702525        -23.588997795466845        -10.615196406598526
  24 H     1.0000    0     1.008        -33.381747594060165        -20.085785693880950        -10.642049414961546
  25 C     4.0000    0    12.011         39.202519826287080         17.042192782587382         13.213097409206766
  26 C     4.0000    0    12.011         37.151562258619663         15.727340235866313         14.223420589446423
  27 C     4.0000    0    12.011         35.183412490140682         17.315220414416324         15.174822108830417
  28 C     4.0000    0    12.011         35.682791518290713         19.896964258579537         14.914455642098748
  29 S     6.0000    0    32.060         38.493645758930541         20.076620522131432         13.540114516681838
  30 H     1.0000    0     1.008         36.203240992833969         13.787630845702845         13.679935353330672
  31 C     4.0000    0    12.011         32.526249675972672         16.466317640536218         16.427162515041370
  32 C     4.0000    0    12.011         30.284259693427156         15.707876056686926         14.248232693584811
  33 C     4.0000    0    12.011         28.639234196587370         18.292586770880394         13.204839306001531
  34 H     1.0000    0     1.008         29.733196655514384         20.054208370183126         13.855396424865260
  35 H     1.0000    0     1.008         28.808629247232073         18.207567992115280         11.015686066160457
  36 H     1.0000    0     1.008         31.239251692465601         14.759989427912023         12.549217721098891
  37 H     1.0000    0     1.008         28.866946195724882         14.349106274613526         15.176163814385502
  38 H     1.0000    0     1.008         31.708999814835746         17.976492280459389         17.777352940466766
  39 H     1.0000    0     1.008         32.845367728207954         14.641749263712571         17.629236206090017
  40 C     4.0000    0    12.011         25.660647864300692         18.679338121448716         13.911029962247902
  41 C     4.0000    0    12.011         23.850176844436099         17.884689384873489         11.379496141462976
  42 C     4.0000    0    12.011         20.711096071595492         17.696850607161721         11.811997761733531
  43 H     1.0000    0     1.008         20.271205622141302         15.949572029215451         13.053491139935778
  44 H     1.0000    0     1.008         19.736280845412214         17.467796902469125          9.865466460226608
  45 H     1.0000    0     1.008         19.982285393526084         19.506622428356764         12.793143570465446
  46 H     1.0000    0     1.008         24.553136068993467         15.965823673967176         10.630276421147217
  47 H     1.0000    0     1.008         24.191669254097008         19.421017834490133          9.864691672511700
  48 H     1.0000    0     1.008         25.090706462310045         17.413108228153444         15.589333536306045
  49 H     1.0000    0     1.008         25.256170882596191         20.763517074550464         14.411429442510249
  50 H     1.0000    0     1.008        -26.599180348712682         -7.992577786158595        -16.585767229461378
  51 H     1.0000    0     1.008        -23.302572005348399        -13.889146933617095        -11.042123334774015
  52 H     1.0000    0     1.008         40.863230050038410         16.264816142876196         12.406732370601230
  53 H     1.0000    0     1.008         34.510273143976590         21.420291392394795         15.477575132745940

--------------------------------
INTERNAL COORDINATES (ANGSTROEM)
--------------------------------
 C      0   0   0   0.000000     0.000     0.000
 C      1   0   0   1.395666     0.000     0.000
 C      2   1   0   1.429791   114.101     0.000
 C      3   2   1   1.398327   113.693     0.000
 S      1   2   3   1.658026   105.480     0.000
 H      2   1   3   1.142152   124.129   180.571
 C      3   2   1   1.623143   118.767   180.238
 C      7   3   2   1.706121   122.978   223.456
 C      8   7   3   1.705701   117.318   179.514
 H      9   8   7   1.158780   105.739    31.811
 H      9   8   7   1.160528   105.592   145.982
 H      8   7   3   1.148403   108.076   297.606
 H      8   7   3   1.148849   107.983    57.042
 H      7   3   2   1.171533   107.963   101.894
 H      7   3   2   1.167354   108.749   345.745
 C      9   8   7   1.633458   121.486   268.470
 C     16   9   8   1.693373   118.328    96.800
 C     17  16   9   1.679980   116.126   265.409
 H     18  17  16   1.158378   109.013   213.949
 H     18  17  16   1.156739   109.502    94.134
 H     18  17  16   1.156987   109.695   333.694
 H     17  16   9   1.153086   107.784    26.605
 H     17  16   9   1.154013   107.667   144.258
 H     16   9   8   1.159295   108.532   217.849
 H     16   9   8   1.158300   108.493   335.051
 C      5   1   2  38.953656   145.405   156.537
 C     26   5   1   1.395666    44.607   154.214
 C     27  26   5   1.429772   114.102   269.343
 C     28  27  26   1.398327   113.693     0.000
 S     26   5   1   1.658039   101.407    53.659
 H     27  26   5   1.178196   132.225    55.607
 C     28  27  26   1.618063   127.885   178.908
 C     32  28  27   1.702396   113.183   278.812
 C     33  32  28   1.712729   112.599   274.280
 H     34  33  32   1.150068   107.156    13.437
 H     34  33  32   1.162784   104.542   126.670
 H     33  32  28   1.146881   109.086    35.037
 H     33  32  28   1.149191   108.236   155.217
 H     32  28  27   1.155927   112.727   154.904
 H     32  28  27   1.168496   109.073    36.468
 C     34  33  32   1.632772   121.129   248.508
 C     41  34  33   1.699799   109.434   257.772
 C     42  41  34   1.679766   117.687   170.591
 H     43  42  41   1.157894   108.867   289.997
 H     43  42  41   1.158368   108.991   170.786
 H     43  42  41   1.155630   110.011    50.433
 H     42  41  34   1.151800   107.899    47.754
 H     42  41  34   1.155929   106.524   290.466
 H     41  34  33   1.152693   110.859    17.307
 H     41  34  33   1.154262   110.566   138.661
 H      1   2   3   1.060002   127.260   180.000
 H      4   3   2   1.060000   127.206   180.000
 H     26   5   1   1.060006   115.127   272.690
 H     29  28  27   1.059997   127.207   180.000

---------------------------
INTERNAL COORDINATES (A.U.)
---------------------------
 C      0   0   0   0.000000     0.000     0.000
 C      1   0   0   2.637427     0.000     0.000
 C      2   1   0   2.701914   114.101     0.000
 C      3   2   1   2.642456   113.693     0.000
 S      1   2   3   3.133216   105.480     0.000
 H      2   1   3   2.158354   124.129   180.571
 C      3   2   1   3.067295   118.767   180.238
 C      7   3   2   3.224102   122.978   223.456
 C      8   7   3   3.223308   117.318   179.514
 H      9   8   7   2.189777   105.739    31.811
 H      9   8   7   2.193079   105.592   145.982
 H      8   7   3   2.170167   108.076   297.606
 H      8   7   3   2.171011   107.983    57.042
 H      7   3   2   2.213877   107.963   101.894
 H      7   3   2   2.205980   108.749   345.745
 C      9   8   7   3.086789   121.486   268.470
 C     16   9   8   3.200010   118.328    96.800
 C     17  16   9   3.174703   116.126   265.409
 H     18  17  16   2.189018   109.013   213.949
 H     18  17  16   2.185920   109.502    94.134
 H     18  17  16   2.186388   109.695   333.694
 H     17  16   9   2.179016   107.784    26.605
 H     17  16   9   2.180768   107.667   144.258
 H     16   9   8   2.190750   108.532   217.849
 H     16   9   8   2.188870   108.493   335.051
 C      5   1   2  73.611742   145.405   156.537
 C     26   5   1   2.637426    44.607   154.214
 C     27  26   5   2.701877   114.102   269.343
 C     28  27  26   2.642456   113.693     0.000
 S     26   5   1   3.133240   101.407    53.659
 H     27  26   5   2.226468   132.225    55.607
 C     28  27  26   3.057696   127.885   178.908
 C     32  28  27   3.217062   113.183   278.812
 C     33  32  28   3.236589   112.599   274.280
 H     34  33  32   2.173313   107.156    13.437
 H     34  33  32   2.197343   104.542   126.670
 H     33  32  28   2.167291   109.086    35.037
 H     33  32  28   2.171656   108.236   155.217
 H     32  28  27   2.184385   112.727   154.904
 H     32  28  27   2.208137   109.073    36.468
 C     34  33  32   3.085492   121.129   248.508
 C     41  34  33   3.212154   109.434   257.772
 C     42  41  34   3.174298   117.687   170.591
 H     43  42  41   2.188102   108.867   289.997
 H     43  42  41   2.188998   108.991   170.786
 H     43  42  41   2.183824   110.011    50.433
 H     42  41  34   2.176586   107.899    47.754
 H     42  41  34   2.184389   106.524   290.466
 H     41  34  33   2.178273   110.859    17.307
 H     41  34  33   2.181239   110.566   138.661
 H      1   2   3   2.003114   127.260   180.000
 H      4   3   2   2.003110   127.206   180.000
 H     26   5   1   2.003122   115.127   272.690
 H     29  28  27   2.003105   127.207   180.000

----------------------------
SLATER BASIS SET DIM= 120
----------------------------
  0 C     2 shells
 l=0 nsto= 1
    2       1.625000000000        1.000000000000
 l=1 nsto= 1
    2       1.625000000000        1.000000000000
  1 C     2 shells
 l=0 nsto= 1
    2       1.625000000000        1.000000000000
 l=1 nsto= 1
    2       1.625000000000        1.000000000000
  2 C     2 shells
 l=0 nsto= 1
    2       1.625000000000        1.000000000000
 l=1 nsto= 1
    2       1.625000000000        1.000000000000
  3 C     2 shells
 l=0 nsto= 1
    2       1.625000000000        1.000000000000
 l=1 nsto= 1
    2       1.625000000000        1.000000000000
  4 S     2 shells
 l=0 nsto= 1
    3       1.925000000000        1.000000000000
 l=1 nsto= 1
    3       1.925000000000        1.000000000000
  5 H     1 shells
 l=0 nsto= 1
    1       1.200000000000        1.000000000000
  6 C     2 shells
 l=0 nsto= 1
    2       1.625000000000        1.000000000000
 l=1 nsto= 1
    2       1.625000000000        1.000000000000
  7 C     2 shells
 l=0 nsto= 1
    2       1.625000000000        1.000000000000
 l=1 nsto= 1
    2       1.625000000000        1.000000000000
  8 C     2 shells
 l=0 nsto= 1
    2       1.625000000000        1.000000000000
 l=1 nsto= 1
    2       1.625000000000        1.000000000000
  9 H     1 shells
 l=0 nsto= 1
    1       1.200000000000        1.000000000000
 10 H     1 shells
 l=0 nsto= 1
    1       1.200000000000        1.000000000000
 11 H     1 shells
 l=0 nsto= 1
    1       1.200000000000        1.000000000000
 12 H     1 shells
 l=0 nsto= 1
    1       1.200000000000        1.000000000000
 13 H     1 shells
 l=0 nsto= 1
    1       1.200000000000        1.000000000000
 14 H     1 shells
 l=0 nsto= 1
    1       1.200000000000        1.000000000000
 15 C     2 shells
 l=0 nsto= 1
    2       1.625000000000        1.000000000000
 l=1 nsto= 1
    2       1.625000000000        1.000000000000
 16 C     2 shells
 l=0 nsto= 1
    2       1.625000000000        1.000000000000
 l=1 nsto= 1
    2       1.625000000000        1.000000000000
 17 C     2 shells
 l=0 nsto= 1
    2       1.625000000000        1.000000000000
 l=1 nsto= 1
    2       1.625000000000        1.000000000000
 18 H     1 shells
 l=0 nsto= 1
    1       1.200000000000        1.000000000000
 19 H     1 shells
 l=0 nsto= 1
    1       1.200000000000        1.000000000000
 20 H     1 shells
 l=0 nsto= 1
    1       1.200000000000        1.000000000000
 21 H     1 shells
 l=0 nsto= 1
    1       1.200000000000        1.000000000000
 22 H     1 shells
 l=0 nsto= 1
    1       1.200000000000        1.000000000000
 23 H     1 shells
 l=0 nsto= 1
    1       1.200000000000        1.000000000000
 24 H     1 shells
 l=0 nsto= 1
    1       1.200000000000        1.000000000000
 25 C     2 shells
 l=0 nsto= 1
    2       1.625000000000        1.000000000000
 l=1 nsto= 1
    2       1.625000000000        1.000000000000
 26 C     2 shells
 l=0 nsto= 1
    2       1.625000000000        1.000000000000
 l=1 nsto= 1
    2       1.625000000000        1.000000000000
 27 C     2 shells
 l=0 nsto= 1
    2       1.625000000000        1.000000000000
 l=1 nsto= 1
    2       1.625000000000        1.000000000000
 28 C     2 shells
 l=0 nsto= 1
    2       1.625000000000        1.000000000000
 l=1 nsto= 1
    2       1.625000000000        1.000000000000
 29 S     2 shells
 l=0 nsto= 1
    3       1.925000000000        1.000000000000
 l=1 nsto= 1
    3       1.925000000000        1.000000000000
 30 H     1 shells
 l=0 nsto= 1
    1       1.200000000000        1.000000000000
 31 C     2 shells
 l=0 nsto= 1
    2       1.625000000000        1.000000000000
 l=1 nsto= 1
    2       1.625000000000        1.000000000000
 32 C     2 shells
 l=0 nsto= 1
    2       1.625000000000        1.000000000000
 l=1 nsto= 1
    2       1.625000000000        1.000000000000
 33 C     2 shells
 l=0 nsto= 1
    2       1.625000000000        1.000000000000
 l=1 nsto= 1
    2       1.625000000000        1.000000000000
 34 H     1 shells
 l=0 nsto= 1
    1       1.200000000000        1.000000000000
 35 H     1 shells
 l=0 nsto= 1
    1       1.200000000000        1.000000000000
 36 H     1 shells
 l=0 nsto= 1
    1       1.200000000000        1.000000000000
 37 H     1 shells
 l=0 nsto= 1
    1       1.200000000000        1.000000000000
 38 H     1 shells
 l=0 nsto= 1
    1       1.200000000000        1.000000000000
 39 H     1 shells
 l=0 nsto= 1
    1       1.200000000000        1.000000000000
 40 C     2 shells
 l=0 nsto= 1
    2       1.625000000000        1.000000000000
 l=1 nsto= 1
    2       1.625000000000        1.000000000000
 41 C     2 shells
 l=0 nsto= 1
    2       1.625000000000        1.000000000000
 l=1 nsto= 1
    2       1.625000000000        1.000000000000
 42 C     2 shells
 l=0 nsto= 1
    2       1.625000000000        1.000000000000
 l=1 nsto= 1
    2       1.625000000000        1.000000000000
 43 H     1 shells
 l=0 nsto= 1
    1       1.200000000000        1.000000000000
 44 H     1 shells
 l=0 nsto= 1
    1       1.200000000000        1.000000000000
 45 H     1 shells
 l=0 nsto= 1
    1       1.200000000000        1.000000000000
 46 H     1 shells
 l=0 nsto= 1
    1       1.200000000000        1.000000000000
 47 H     1 shells
 l=0 nsto= 1
    1       1.200000000000        1.000000000000
 48 H     1 shells
 l=0 nsto= 1
    1       1.200000000000        1.000000000000
 49 H     1 shells
 l=0 nsto= 1
    1       1.200000000000        1.000000000000
 50 H     1 shells
 l=0 nsto= 1
    1       1.200000000000        1.000000000000
 51 H     1 shells
 l=0 nsto= 1
    1       1.200000000000        1.000000000000
 52 H     1 shells
 l=0 nsto= 1
    1       1.200000000000        1.000000000000
 53 H     1 shells
 l=0 nsto= 1
    1       1.200000000000        1.000000000000
------------------------------------------------------------------------------
                           ORCA NDO INTEGRAL CALCULATION
------------------------------------------------------------------------------

--------------
NDO PARAMETERS
--------------

Gamma integral treatment              ... Mataga-Nishimoto
Nuclear repulsuion treatment          ... Direct (ZA*ZB/RAB)
Interaction factors:
s-s (sigma) =    1.0000
s-p (sigma) =    1.0000
s-d (sigma) =    1.0000
p-p (sigma) =    1.2670  p-p(pi) =    0.5850
p-d (sigma) =    1.0000  p-d(pi) =    1.0000
d-d (sigma) =    1.0000  d-d(pi) =    1.0000 d-d (delta) =    1.0000

fGamma parameter for Mataga-Nishimoto gamma integrals:    1.2000

--------------------------
Parameters for Element H :
--------------------------
 One-electron parameters (in eV)
  U(s)  =   -13.060000 Beta(s) =    12.000000 Neff(s) =     1.000000
 One-center electron repulsion parameters (in eV)
  G(s,s)=    12.850000
--------------------------
Parameters for Element C :
--------------------------
 One-electron parameters (in eV)
  U(s)  =   -50.870766 Beta(s) =    17.000000 Neff(s) =     2.000000
  U(p)  =   -41.599980 Beta(p) =    17.000000 Neff(p) =     2.000000 
 One-center electron repulsion parameters (in eV)
  G(s,s)=    11.110000
  G(s,p)=    11.110000 G(p,p)  =    11.110000
 Slater-Condon parameters (in eV)
 F2(p,p)=     4.5098 G1(s,p)=    6.8977
--------------------------
Parameters for Element S :
--------------------------
 One-electron parameters (in eV)
  U(s)  =   -69.509597 Beta(s) =    15.000000 Neff(s) =     2.000000
  U(p)  =   -60.725746 Beta(p) =    15.000000 Neff(p) =     4.000000 
 One-center electron repulsion parameters (in eV)
  G(s,s)=    10.090000
  G(s,p)=    10.090000 G(p,p)  =    10.090000
 Slater-Condon parameters (in eV)
 F2(p,p)=     4.5377 G1(s,p)=    3.0756

 Number of atoms                    ....   54
 Number of basis functions          ....  120

 Overlap integrals                  .... done
 One electron matrix                .... done
 Nuclear repulsion                  .... done
 Integral list                      .... done
 Electron-electron repulsion        .... done
-------------------------------------------------------------------------------
                                 ORCA SCF
-------------------------------------------------------------------------------

------------
SCF SETTINGS
------------
Hamiltonian:
 ZDO-Hamiltonian        Method          .... INDO


General Settings:
 Integral files         IntName         .... /Users/mattyjones/GoogleDrive/Boise/Code/MorphCT/tests/output_EZ/donor_polymer/chromophores/input_orca/pair/00006-00027
 Hartree-Fock type      HFTyp           .... RHF
 Total Charge           Charge          ....    0
 Multiplicity           Mult            ....    1
 Number of Electrons    NEL             ....  124
 Basis Dimension        Dim             ....  120
 Nuclear Repulsion      ENuc            ....    642.2257085116 Eh

Convergence Acceleration:
 DIIS                   CNVDIIS         .... on
   Start iteration      DIISMaxIt       ....    12
   Startup error        DIISStart       ....  0.200000
   # of expansion vecs  DIISMaxEq       ....     5
   Bias factor          DIISBfac        ....   1.050
   Max. coefficient     DIISMaxC        ....  10.000
 Newton-Raphson         CNVNR           .... off
 SOSCF                  CNVSOSCF        .... on
   Start iteration      SOSCFMaxIt      ....   150
   Startup grad/error   SOSCFStart      ....  0.003300
 Level Shifting         CNVShift        .... on
   Level shift para.    LevelShift      ....    0.2500
   Turn off err/grad.   ShiftErr        ....    0.0010
 Zerner damping         CNVZerner       .... off
 Static damping         CNVDamp         .... on
   Fraction old density DampFac         ....    0.7000
   Max. Damping (<1)    DampMax         ....    0.9800
   Min. Damping (>=0)   DampMin         ....    0.0000
   Turn off err/grad.   DampErr         ....    0.1000
 Fernandez-Rico         CNVRico         .... off

SCF Procedure:
 Maximum # iterations   MaxIter         ....   125
 SCF integral mode      SCFMode         .... Conventional
 Integral Buffer length BufferLength    .... 1048576
 Integral index format  IndFormat       ....     0
 Integral value format  ValFormat       ....     0
 Integral Storage       Thresh          ....  1.000e-08 Eh

Convergence Tolerance:
 Convergence Check Mode ConvCheckMode   .... Total+1el-Energy
 Energy Change          TolE            ....  1.000e-06 Eh
 1-El. energy change                    ....  1.000e-03 Eh
 Orbital Gradient       TolG            ....  5.000e-05
 Orbital Rotation angle TolX            ....  5.000e-05
 DIIS Error             TolErr          ....  1.000e-06


Diagonalization of the overlap matrix:
Smallest eigenvalue                        ... 1.694e-01
Time for diagonalization                   ...    0.003 sec
Threshold for overlap eigenvalues          ... 1.000e-08
Number of eigenvalues below threshold      ... 0
Time for construction of square roots      ...    0.001 sec
Total time needed                          ...    0.004 sec

-------------------------------
INITIAL GUESS: EXTENDED HUECKEL
-------------------------------
EHT matrix was read from disk
EHT matrix was diagonalized
Initial density was built
                      ------------------
                      INITIAL GUESS DONE
                      ------------------

 InCore treatment chosen:
   Memory dedicated               ...    1024 MB
   Memory needed                  ...      0 MB
   Number of tiny    integrals    ...       0
   Number of small   integrals    ...       0
   Number of regular integrals    ...    7392

--------------
SCF ITERATIONS
--------------
ITER       Energy         Delta-E        Max-DP      RMS-DP      [F,P]     Damp
  0    -21.4137736132   0.000000000000 0.04576679  0.00146661  0.1116715 0.7000
  1    -21.4563102735  -0.042536660304 0.04441118  0.00138230  0.0759298 0.7000
                               ***Turning on DIIS***
  2    -21.4877512634  -0.031440989905 0.11631755  0.00354691  0.0483344 0.0000
  3    -21.5713889728  -0.083637709433 0.01997298  0.00073646  0.0225090 0.0000
  4    -21.5538138885   0.017575084377 0.01427191  0.00050842  0.0077495 0.0000
  5    -21.5718184513  -0.018004562832 0.00996846  0.00034522  0.0046807 0.0000
  6    -21.5735974454  -0.001778994090 0.00711247  0.00024607  0.0026895 0.0000
                      *** Initiating the SOSCF procedure ***
                           *** Shutting down DIIS ***
                      *** Re-Reading the Fockian *** 
                      *** Removing any level shift *** 
ITER      Energy       Delta-E        Grad      Rot      Max-DP    RMS-DP
  7    -21.57001404   0.0035834073  0.003111  0.003111  0.004341  0.000140
  8    -21.56828141   0.0017326310  0.000872  0.002442  0.002215  0.000065
  9    -21.56829725  -0.0000158452  0.000383  0.002413  0.002556  0.000071
 10    -21.56830323  -0.0000059730  0.000034  0.000068  0.000117  0.000004
                 **** Energy Check signals convergence ****
              ***Rediagonalizing the Fockian in SOSCF/NRSCF***

               *****************************************************
               *                     SUCCESS                       *
               *           SCF CONVERGED AFTER  11 CYCLES          *
               *****************************************************


----------------
TOTAL SCF ENERGY
----------------

Total Energy       :          -21.56830328 Eh            -586.90337 eV

Components:
Nuclear Repulsion  :          642.22570851 Eh           17475.84998 eV
Electronic Energy  :         -663.79401179 Eh          -18062.75335 eV

One Electron Energy:        -1237.22090900 Eh          -33666.49251 eV
Two Electron Energy:          573.42689721 Eh           15603.73915 eV


---------------
SCF CONVERGENCE
---------------

  Last Energy change         ...   -5.4818e-08  Tolerance :   1.0000e-06
  Last MAX-Density change    ...    7.8943e-05  Tolerance :   1.0000e-05
  Last RMS-Density change    ...    1.5327e-06  Tolerance :   1.0000e-06
  Last Orbital Gradient      ...    1.1667e-05  Tolerance :   5.0000e-05
  Last Orbital Rotation      ...    2.9476e-05  Tolerance :   5.0000e-05

             **** THE GBW FILE WAS UPDATED (/Users/mattyjones/GoogleDrive/Boise/Code/MorphCT/tests/output_EZ/donor_polymer/chromophores/input_orca/pair/00006-00027.gbw) ****
             **** DENSITY FILE WAS UPDATED (/Users/mattyjones/GoogleDrive/Boise/Code/MorphCT/tests/output_EZ/donor_polymer/chromophores/input_orca/pair/00006-00027.scfp.tmp) ****
             **** ENERGY FILE WAS UPDATED (/Users/mattyjones/GoogleDrive/Boise/Code/MorphCT/tests/output_EZ/donor_polymer/chromophores/input_orca/pair/00006-00027.en.tmp) ****
----------------
ORBITAL ENERGIES
----------------

  NO   OCC          E(Eh)            E(eV) 
   0   2.0000      -1.559914       -42.4474 
   1   2.0000      -1.555785       -42.3350 
   2   2.0000      -1.397918       -38.0393 
   3   2.0000      -1.394555       -37.9478 
   4   2.0000      -1.294759       -35.2322 
   5   2.0000      -1.283266       -34.9195 
   6   2.0000      -1.182493       -32.1773 
   7   2.0000      -1.177693       -32.0466 
   8   2.0000      -1.110332       -30.2137 
   9   2.0000      -1.107672       -30.1413 
  10   2.0000      -1.059841       -28.8397 
  11   2.0000      -1.036343       -28.2003 
  12   2.0000      -0.953570       -25.9480 
  13   2.0000      -0.951762       -25.8987 
  14   2.0000      -0.907117       -24.6839 
  15   2.0000      -0.886528       -24.1237 
  16   2.0000      -0.874792       -23.8043 
  17   2.0000      -0.857541       -23.3349 
  18   2.0000      -0.838596       -22.8194 
  19   2.0000      -0.815629       -22.1944 
  20   2.0000      -0.788182       -21.4475 
  21   2.0000      -0.769895       -20.9499 
  22   2.0000      -0.734840       -19.9960 
  23   2.0000      -0.721205       -19.6250 
  24   2.0000      -0.701008       -19.0754 
  25   2.0000      -0.699935       -19.0462 
  26   2.0000      -0.664976       -18.0949 
  27   2.0000      -0.661981       -18.0134 
  28   2.0000      -0.645515       -17.5654 
  29   2.0000      -0.644010       -17.5244 
  30   2.0000      -0.619749       -16.8642 
  31   2.0000      -0.618012       -16.8170 
  32   2.0000      -0.586774       -15.9669 
  33   2.0000      -0.583487       -15.8775 
  34   2.0000      -0.581335       -15.8189 
  35   2.0000      -0.575179       -15.6514 
  36   2.0000      -0.575037       -15.6475 
  37   2.0000      -0.573599       -15.6084 
  38   2.0000      -0.554072       -15.0771 
  39   2.0000      -0.553473       -15.0608 
  40   2.0000      -0.533641       -14.5211 
  41   2.0000      -0.528285       -14.3754 
  42   2.0000      -0.519523       -14.1369 
  43   2.0000      -0.511978       -13.9316 
  44   2.0000      -0.509479       -13.8636 
  45   2.0000      -0.505614       -13.7585 
  46   2.0000      -0.497726       -13.5438 
  47   2.0000      -0.494649       -13.4601 
  48   2.0000      -0.488656       -13.2970 
  49   2.0000      -0.488405       -13.2902 
  50   2.0000      -0.478769       -13.0280 
  51   2.0000      -0.476030       -12.9534 
  52   2.0000      -0.469623       -12.7791 
  53   2.0000      -0.467182       -12.7127 
  54   2.0000      -0.462438       -12.5836 
  55   2.0000      -0.461309       -12.5529 
  56   2.0000      -0.438311       -11.9271 
  57   2.0000      -0.434852       -11.8329 
  58   2.0000      -0.357674        -9.7328 
  59   2.0000      -0.352321        -9.5871 
  60   2.0000      -0.305189        -8.3046 
  61   2.0000      -0.303549        -8.2600 
  62   0.0000       0.004900         0.1333 
  63   0.0000       0.007268         0.1978 
  64   0.0000       0.062457         1.6995 
  65   0.0000       0.065994         1.7958 
  66   0.0000       0.075224         2.0470 
  67   0.0000       0.078330         2.1315 
  68   0.0000       0.085481         2.3261 
  69   0.0000       0.090765         2.4698 
  70   0.0000       0.103695         2.8217 
  71   0.0000       0.104301         2.8382 
  72   0.0000       0.107316         2.9202 
  73   0.0000       0.109115         2.9692 
  74   0.0000       0.125473         3.4143 
  75   0.0000       0.126092         3.4311 
  76   0.0000       0.139636         3.7997 
  77   0.0000       0.142381         3.8744 
  78   0.0000       0.156249         4.2518 
  79   0.0000       0.158853         4.3226 
  80   0.0000       0.166034         4.5180 
  81   0.0000       0.168167         4.5760 
  82   0.0000       0.168905         4.5961 
  83   0.0000       0.172321         4.6891 
  84   0.0000       0.196962         5.3596 
  85   0.0000       0.203565         5.5393 
  86   0.0000       0.231428         6.2975 
  87   0.0000       0.233771         6.3612 
  88   0.0000       0.234682         6.3860 
  89   0.0000       0.236698         6.4409 
  90   0.0000       0.237600         6.4654 
  91   0.0000       0.238649         6.4940 
  92   0.0000       0.239476         6.5165 
  93   0.0000       0.239521         6.5177 
  94   0.0000       0.240862         6.5542 
  95   0.0000       0.242038         6.5862 
  96   0.0000       0.242195         6.5905 
  97   0.0000       0.244157         6.6439 
  98   0.0000       0.244992         6.6666 
  99   0.0000       0.245559         6.6820 
 100   0.0000       0.248188         6.7536 
 101   0.0000       0.254924         6.9368 
 102   0.0000       0.257657         7.0112 
 103   0.0000       0.261866         7.1257 
 104   0.0000       0.266361         7.2481 
 105   0.0000       0.266728         7.2580 
 106   0.0000       0.276835         7.5331 
 107   0.0000       0.278693         7.5836 
 108   0.0000       0.303273         8.2525 
 109   0.0000       0.305447         8.3116 
 110   0.0000       0.310076         8.4376 
 111   0.0000       0.310321         8.4443 
 112   0.0000       0.340561         9.2671 
 113   0.0000       0.342001         9.3063 
 114   0.0000       0.350397         9.5348 
 115   0.0000       0.354986         9.6597 
 116   0.0000       0.404844        11.0164 
 117   0.0000       0.414368        11.2755 
 118   0.0000       0.428889        11.6707 
 119   0.0000       0.433493        11.7959 
-------
TIMINGS
-------

Total SCF time: 0 days 0 hours 0 min 0 sec 

Total time                  ....       0.177 sec
Sum of individual times     ....       0.108 sec  ( 61.4%)

Fock matrix formation       ....       0.046 sec  ( 26.3%)
Diagonalization             ....       0.024 sec  ( 13.7%)
Density matrix formation    ....       0.005 sec  (  2.9%)
Population analysis         ....       0.000 sec  (  0.0%)
Initial guess               ....       0.003 sec  (  1.7%)
Orbital Transformation      ....       0.000 sec  (  0.0%)
Orbital Orthonormalization  ....       0.000 sec  (  0.0%)
DIIS solution               ....       0.025 sec  ( 13.9%)
SOSCF solution              ....       0.005 sec  (  3.0%)

-------------------------   --------------------
FINAL SINGLE POINT ENERGY       -21.568303280111
-------------------------   --------------------


                            ***************************************
                            *     ORCA property calculations      *
                            ***************************************

                                    ---------------------
                                    Active property flags
                                    ---------------------
   (+) Dipole Moment


------------------------------------------------------------------------------
                       ORCA ELECTRIC PROPERTIES CALCULATION
------------------------------------------------------------------------------

Dipole Moment Calculation                       ... on
Quadrupole Moment Calculation                   ... off
Polarizability Calculation                      ... off
GBWName                                         ... /Users/mattyjones/GoogleDrive/Boise/Code/MorphCT/tests/output_EZ/donor_polymer/chromophores/input_orca/pair/00006-00027.gbw
Electron density file                           ... /Users/mattyjones/GoogleDrive/Boise/Code/MorphCT/tests/output_EZ/donor_polymer/chromophores/input_orca/pair/00006-00027.scfp.tmp

-------------
DIPOLE MOMENT
-------------
                                X             Y             Z
Electronic contribution:    211.53978     137.48767       7.61930
Nuclear contribution   :   -113.13469     -73.03717      -3.87533
                        -----------------------------------------
Total Dipole Moment    :     98.40509      64.45050       3.74398
                        -----------------------------------------
Magnitude (a.u.)       :    117.69217
Magnitude (Debye)      :    299.14972


Timings for individual modules:

Sum of individual times         ...        0.281 sec (=   0.005 min)
STO integral calculation        ...        0.071 sec (=   0.001 min)  25.1 %
SCF iterations                  ...        0.211 sec (=   0.004 min)  74.9 %
                             ****ORCA TERMINATED NORMALLY****
TOTAL RUN TIME: 0 days 0 hours 0 minutes 0 seconds 658 msec

