
                                 *****************
                                 * O   R   C   A *
                                 *****************

           --- An Ab Initio, DFT and Semiempirical electronic structure package ---

                  #######################################################
                  #                        -***-                        #
                  #  Department of molecular theory and spectroscopy    #
                  #              Directorship: Frank Neese              #
                  # Max Planck Institute for Chemical Energy Conversion #
                  #                  D-45470 Muelheim/Ruhr              #
                  #                       Germany                       #
                  #                                                     #
                  #                  All rights reserved                #
                  #                        -***-                        #
                  #######################################################


                         Program Version 3.0.3 - RELEASE   -


 With contributions from (in alphabetic order):
   Ute Becker             : Parallelization
   Dmytro Bykov           : SCF Hessian
   Dmitry Ganyushin       : Spin-Orbit,Spin-Spin,Magnetic field MRCI
   Andreas Hansen         : Spin unrestricted coupled pair/coupled cluster methods
   Dimitrios Liakos       : Extrapolation schemes; parallel MDCI
   Robert Izsak           : Overlap fitted RIJCOSX, COSX-SCS-MP3
   Christian Kollmar      : KDIIS, OOCD, Brueckner-CCSD(T), CCSD density
   Simone Kossmann        : Meta GGA functionals, TD-DFT gradient, OOMP2, MP2 Hessian
   Taras Petrenko         : DFT Hessian,TD-DFT gradient, ASA and ECA modules, normal mode analysis, Resonance Raman, ABS, FL, XAS/XES, NRVS
   Christoph Reimann      : Effective Core Potentials
   Michael Roemelt        : Restricted open shell CIS
   Christoph Riplinger    : Improved optimizer, TS searches, QM/MM, DLPNO-CCSD
   Barbara Sandhoefer     : DKH picture change effects
   Igor Schapiro          : Molecular dynamics
   Kantharuban Sivalingam : CASSCF convergence, NEVPT2
   Boris Wezisla          : Elementary symmetry handling
   Frank Wennmohs         : Technical directorship


 We gratefully acknowledge several colleagues who have allowed us to
 interface, adapt or use parts of their codes:
   Stefan Grimme, W. Hujo, H. Kruse, T. Risthaus : VdW corrections, initial TS optimization,
                                                   DFT functionals, gCP
   Ed Valeev                                     : LibInt (2-el integral package), F12 methods
   Garnet Chan, S. Sharma, R. Olivares           : DMRG
   Ulf Ekstrom                                   : XCFun DFT Library
   Mihaly Kallay                                 : mrcc  (arbitrary order and MRCC methods)
   Andreas Klamt, Michael Diedenhofen            : otool_cosmo (COSMO solvation model)
   Frank Weinhold                                : gennbo (NPA and NBO analysis)
   Christopher J. Cramer and Donald G. Truhlar   : smd solvation model


 Your calculation uses the libint2 library for the computation of 2-el integrals
 For citations please refer to: http://libint.valeyev.net

 This ORCA versions uses:
   CBLAS   interface :  Fast vector & matrix operations
   LAPACKE interface :  Fast linear algebra routines
   SCALAPACK package :  Parallel linear algebra routines


leaving
================================================================================
                                        WARNINGS
                       Please study these warnings very carefully!
================================================================================
Now building the actual basis set

WARNING: Direct SCF is incompatible with Method<>HF and Method<>DFT
  ===> : conventional SCF is chosen

WARNING: The NDO methods need Guess=HUECKEL or Guess=HCORE or Guess=MOREAD
  ===> : Guess is set to Hueckel

WARNING: The NDO methods need %rel::SOCType==1
  ===> : %rel::SOCType is set to 1

WARNING: The NDO methods cannot have frozencore=1
  ===> : %method FrozenCore=0 end


INFO   : the flag for use of LIBINT has been found!

================================================================================
                                       INPUT FILE
================================================================================
NAME = /Users/mattyjones/GoogleDrive/Boise/Code/MorphCT/tests/output_EZ/donor_polymer/chromophores/input_orca/pair/00006-00021.inp
|  1> # ================================================================
|  2> # Orca input file made by Matty Jones
|  3> # ================================================================
|  4> ! ZINDO/S 
|  5> ! NOPOP
|  6> ! NOMOPRINT
|  7> * xyz 0   1
|  8>  C  22.94827  4.20101  -2.53606
|  9>  C  22.34604  2.94484  -2.62122
| 10>  C  22.88286  1.97738  -1.71561
| 11>  C  23.91418  2.47212  -0.91129
| 12>  S  24.10490  4.05821  -1.35669
| 13>  H  21.50449  2.68566  -3.34863
| 14>  C  22.26854  0.47500  -1.72320
| 15>  C  21.91601  -0.39138  -0.29633
| 16>  C  21.26183  -1.95677  -0.47245
| 17>  H  21.71651  -2.37919  -1.45102
| 18>  H  21.68741  -2.57416  0.41328
| 19>  H  22.89827  -0.54697  0.27794
| 20>  H  21.18256  0.23557  0.32723
| 21>  H  23.01117  -0.21604  -2.30925
| 22>  H  21.26201  0.48418  -2.31441
| 23>  C  19.64826  -2.20722  -0.51551
| 24>  C  18.89642  -2.34431  -2.02661
| 25>  C  18.23132  -0.93431  -2.65261
| 26>  H  17.27831  -1.20143  -3.25449
| 27>  H  18.99857  -0.42211  -3.35047
| 28>  H  17.95131  -0.21804  -1.78822
| 29>  H  19.68203  -2.73054  -2.77712
| 30>  H  18.05126  -3.12386  -1.92786
| 31>  H  19.41243  -3.18896  0.05418
| 32>  H  19.12616  -1.33514  0.03997
| 33>  C  -16.08056  0.45155  -0.55335
| 34>  C  -17.25643  -0.14010  -0.08947
| 35>  C  -18.05977  0.71768  0.72487
| 36>  C  -17.51549  1.99308  0.90492
| 37>  S  -16.08902  1.99235  0.05899
| 38>  H  -17.56205  -1.21417  -0.32473
| 39>  C  -19.44951  0.15957  1.34365
| 40>  C  -20.96429  0.94219  1.23818
| 41>  C  -22.18727  0.15718  2.12919
| 42>  H  -21.62516  -0.46574  2.93202
| 43>  H  -22.75361  1.00999  2.67869
| 44>  H  -21.27220  0.84134  0.12260
| 45>  H  -20.99880  2.03830  1.50768
| 46>  H  -19.28643  0.01006  2.49195
| 47>  H  -19.65290  -0.89984  0.89102
| 48>  C  -23.30873  -0.81215  1.45677
| 49>  C  -24.21380  -1.61934  2.64665
| 50>  C  -25.48736  -0.75815  3.33102
| 51>  H  -25.07132  -0.05423  4.15081
| 52>  H  -26.23765  -1.50107  3.80605
| 53>  H  -26.02025  -0.13469  2.51609
| 54>  H  -23.49605  -1.93102  3.49234
| 55>  H  -24.65765  -2.56425  2.15533
| 56>  H  -24.03989  -0.18753  0.81665
| 57>  H  -22.80332  -1.60491  0.78833
| 58>  H  22.71534  5.06431  -3.10532
| 59>  H  24.45983  1.94398  -0.17175
| 60>  H  -15.33856  0.00915  -1.16760
| 61>  H  -17.92822  2.79291  1.46486
| 62> *
| 63> 
| 64>                          ****END OF INPUT****
================================================================================

                       ****************************
                       * Single Point Calculation *
                       ****************************

---------------------------------
CARTESIAN COORDINATES (ANGSTROEM)
---------------------------------
  C     22.948270    4.201010   -2.536060
  C     22.346040    2.944840   -2.621220
  C     22.882860    1.977380   -1.715610
  C     23.914180    2.472120   -0.911290
  S     24.104900    4.058210   -1.356690
  H     21.504490    2.685660   -3.348630
  C     22.268540    0.475000   -1.723200
  C     21.916010   -0.391380   -0.296330
  C     21.261830   -1.956770   -0.472450
  H     21.716510   -2.379190   -1.451020
  H     21.687410   -2.574160    0.413280
  H     22.898270   -0.546970    0.277940
  H     21.182560    0.235570    0.327230
  H     23.011170   -0.216040   -2.309250
  H     21.262010    0.484180   -2.314410
  C     19.648260   -2.207220   -0.515510
  C     18.896420   -2.344310   -2.026610
  C     18.231320   -0.934310   -2.652610
  H     17.278310   -1.201430   -3.254490
  H     18.998570   -0.422110   -3.350470
  H     17.951310   -0.218040   -1.788220
  H     19.682030   -2.730540   -2.777120
  H     18.051260   -3.123860   -1.927860
  H     19.412430   -3.188960    0.054180
  H     19.126160   -1.335140    0.039970
  C    -16.080560    0.451550   -0.553350
  C    -17.256430   -0.140100   -0.089470
  C    -18.059770    0.717680    0.724870
  C    -17.515490    1.993080    0.904920
  S    -16.089020    1.992350    0.058990
  H    -17.562050   -1.214170   -0.324730
  C    -19.449510    0.159570    1.343650
  C    -20.964290    0.942190    1.238180
  C    -22.187270    0.157180    2.129190
  H    -21.625160   -0.465740    2.932020
  H    -22.753610    1.009990    2.678690
  H    -21.272200    0.841340    0.122600
  H    -20.998800    2.038300    1.507680
  H    -19.286430    0.010060    2.491950
  H    -19.652900   -0.899840    0.891020
  C    -23.308730   -0.812150    1.456770
  C    -24.213800   -1.619340    2.646650
  C    -25.487360   -0.758150    3.331020
  H    -25.071320   -0.054230    4.150810
  H    -26.237650   -1.501070    3.806050
  H    -26.020250   -0.134690    2.516090
  H    -23.496050   -1.931020    3.492340
  H    -24.657650   -2.564250    2.155330
  H    -24.039890   -0.187530    0.816650
  H    -22.803320   -1.604910    0.788330
  H     22.715340    5.064310   -3.105320
  H     24.459830    1.943980   -0.171750
  H    -15.338560    0.009150   -1.167600
  H    -17.928220    2.792910    1.464860

----------------------------
CARTESIAN COORDINATES (A.U.)
----------------------------
  NO LB      ZA    FRAG    MASS        X           Y           Z
   0 C     4.0000    0    12.011         43.365945547281044          7.938758385864518         -4.792458859192330
   1 C     4.0000    0    12.011         42.227895777649643          5.564941108216659         -4.953387936757063
   2 C     4.0000    0    12.011         43.242338560861256          3.736706662693205         -3.242033052616639
   3 C     4.0000    0    12.011         45.191250917296919          4.671629770189404         -1.722088528581097
   4 S     6.0000    0    32.060         45.551659485558382          7.668905493940563         -2.563772548629623
   5 H     1.0000    0     1.008         40.637596749648218          5.075161888826949         -6.327993623832721
   6 C     4.0000    0    12.011         42.081442002270755          0.897619913612595         -3.256376073973101
   7 C     4.0000    0    12.011         41.415256848279490         -0.739601014294100         -0.559982545264884
   8 C     4.0000    0    12.011         40.179035805990885         -3.697759407073087         -0.892801111971095
   9 H     1.0000    0     1.008         41.038256484562197         -4.496017520564102         -2.742030414842414
  10 H     1.0000    0     1.008         40.983265454065091         -4.864457424894729          0.780986016626975
  11 H     1.0000    0     1.008         43.271459240584981         -1.033623503470907          0.525230481662073
  12 H     1.0000    0     1.008         40.029237215354946          0.445162785367829          0.618375082803051
  13 H     1.0000    0     1.008         43.484809321104692         -0.408256433972347         -4.363850074757650
  14 H     1.0000    0     1.008         40.179375956694990          0.914967599521992         -4.373601061608684
  15 C     4.0000    0    12.011         37.129830408079570         -4.171041317313665         -0.974172719297745
  16 C     4.0000    0    12.011         35.709058711552217         -4.430103873012929         -3.829737880266147
  17 C     4.0000    0    12.011         34.452201859881193         -1.765590024183965         -5.012706440100851
  18 H     1.0000    0     1.008         32.651273956992902         -2.270373669077010         -6.150094805585375
  19 H     1.0000    0     1.008         35.902094236132278         -0.797672298389499         -6.331470719919136
  20 H     1.0000    0     1.008         33.923059645121903         -0.412035886240190         -3.379246067200660
  21 H     1.0000    0     1.008         37.193646459622094         -5.159972797717335         -5.247996241035387
  22 H     1.0000    0     1.008         34.111937772207334         -5.903239880711241         -3.643127424541424
  23 H     1.0000    0     1.008         36.684176293916927         -6.026261052029514          0.102385361935853
  24 H     1.0000    0     1.008         36.143204393559287         -2.523048950443620          0.075532353572832
  25 C     4.0000    0    12.011        -30.387854480088720          0.853305835772141         -1.045679956205325
  26 C     4.0000    0    12.011        -32.609926749182705         -0.264750631362367         -0.169073797201934
  27 C     4.0000    0    12.011        -34.128019341607001          1.356218651792604          1.369805782695498
  28 C     4.0000    0    12.011        -33.099479201436345          3.766375362995768          1.710050973108019
  29 S     6.0000    0    32.060        -30.403841563181700          3.764995862918006          0.111474944640015
  30 H     1.0000    0     1.008        -33.187464850231713         -2.294448780023166         -0.613650767468248
  31 C     4.0000    0    12.011        -36.754247338962720          0.301543599189814          2.539130519843290
  32 C     4.0000    0    12.011        -39.616766692103951          1.780481066119264          2.339821104498616
  33 C     4.0000    0    12.011        -41.927863959366974          0.297027153729742          4.023585987083790
  34 H     1.0000    0     1.008        -40.865630002228500         -0.880121049612484          5.540714819179788
  35 H     1.0000    0     1.008        -42.998091458051931          1.908604497999125          5.061990497673517
  36 H     1.0000    0     1.008        -40.198632265999656          1.589902185513306          0.231680424018745
  37 H     1.0000    0     1.008        -39.681981140985577          3.851828778771687          2.849102297590393
  38 H     1.0000    0     1.008        -36.446070801042843          0.019010644907248          4.709103039425063
  39 H     1.0000    0     1.008        -37.138598737340963         -1.700451164347699          1.683783779846514
  40 C     4.0000    0    12.011        -44.047116229514295         -1.534741079664145          2.752896340112462
  41 C     4.0000    0    12.011        -45.757450661542400         -3.060109117704040          5.001443672342681
  42 C     4.0000    0    12.011        -48.164130276659151         -1.432695868432397          6.294715546614368
  43 H     1.0000    0     1.008        -47.377928615902555         -0.102479848242549          7.843894133941671
  44 H     1.0000    0     1.008        -49.581972897678924         -2.836611207845173          7.192392152010980
  45 H     1.0000    0     1.008        -49.171146436164449         -0.254527212977853          4.754721028297922
  46 H     1.0000    0     1.008        -44.401099728920428         -3.649098959124615          6.599566166538544
  47 H     1.0000    0     1.008        -46.596205606083352         -4.845730238907570          4.072983428224492
  48 H     1.0000    0     1.008        -45.428808389592156         -0.354380341894252          1.543244847266790
  49 H     1.0000    0     1.008        -43.092029744169153         -3.032840369591556          1.489727803154140
  50 H     1.0000    0     1.008         42.925771638906767          9.570158957278734         -5.868204358188341
  51 H     1.0000    0     1.008         46.222379982271050          3.673589809820235         -0.324560463500975
  52 H     1.0000    0     1.008        -28.985677688719154          0.017290994125379         -2.206444233966453
  53 H     1.0000    0     1.008        -33.879425868689658          5.277835016690003          2.768184224535885

--------------------------------
INTERNAL COORDINATES (ANGSTROEM)
--------------------------------
 C      0   0   0   0.000000     0.000     0.000
 C      1   0   0   1.395671     0.000     0.000
 C      2   1   0   1.429785   114.102     0.000
 C      3   2   1   1.398327   113.693     0.000
 S      1   2   3   1.658041   105.479     0.000
 H      2   1   3   1.142150   124.127   180.571
 C      3   2   1   1.623143   118.767   180.238
 C      7   3   2   1.706121   122.978   223.456
 C      8   7   3   1.705701   117.318   179.514
 H      9   8   7   1.158780   105.739    31.811
 H      9   8   7   1.160520   105.592   145.982
 H      8   7   3   1.148403   108.076   297.606
 H      8   7   3   1.148844   107.983    57.042
 H      7   3   2   1.171533   107.963   101.894
 H      7   3   2   1.167354   108.749   345.745
 C      9   8   7   1.633459   121.486   268.470
 C     16   9   8   1.693364   118.328    96.800
 C     17  16   9   1.679980   116.126   265.409
 H     18  17  16   1.158378   109.013   213.949
 H     18  17  16   1.156732   109.503    94.134
 H     18  17  16   1.156987   109.695   333.693
 H     17  16   9   1.153092   107.784    26.604
 H     17  16   9   1.154013   107.667   144.258
 H     16   9   8   1.159300   108.532   217.849
 H     16   9   8   1.158305   108.492   335.050
 C     19  18  17  33.508845   139.975   104.868
 C     26  19  18   1.395674   147.631   274.762
 C     27  26  19   1.429787   114.101   126.392
 C     28  27  26   1.398322   113.693     0.000
 S     26  19  18   1.658040    94.628    43.656
 H     27  26  19   1.141217   123.785   306.733
 C     28  27  26   1.620417   119.521   180.493
 C     32  28  27   1.708267   125.390   230.362
 C     33  32  28   1.704646   113.137   185.698
 H     34  33  32   1.161264   105.136    22.473
 H     34  33  32   1.161885   105.005   135.873
 H     33  32  28   1.161679   104.747    70.982
 H     33  32  28   1.129282   117.196   311.625
 H     32  28  27   1.169419   107.422   108.009
 H     32  28  27   1.169868   108.256   353.062
 C     34  33  32   1.627704   123.547   258.981
 C     41  34  33   1.698977   111.140   170.989
 C     42  41  34   1.682844   116.413    82.311
 H     43  42  41   1.157864   109.094   278.829
 H     43  42  41   1.157808   109.202   159.285
 H     43  42  41   1.156194   109.762    39.035
 H     42  41  34   1.152172   108.103   320.430
 H     42  41  34   1.153799   107.205   202.695
 H     41  34  33   1.155205   110.059   290.494
 H     41  34  33   1.153568   110.290    50.961
 H      1   2   3   1.060000   127.261   180.000
 H      4   3   2   1.059993   127.206   180.000
 H     26  19  18   1.059993    40.167   191.413
 H     29  28  27   1.060003   127.206   180.000

---------------------------
INTERNAL COORDINATES (A.U.)
---------------------------
 C      0   0   0   0.000000     0.000     0.000
 C      1   0   0   2.637435     0.000     0.000
 C      2   1   0   2.701901   114.102     0.000
 C      3   2   1   2.642456   113.693     0.000
 S      1   2   3   3.133243   105.479     0.000
 H      2   1   3   2.158350   124.127   180.571
 C      3   2   1   3.067295   118.767   180.238
 C      7   3   2   3.224102   122.978   223.456
 C      8   7   3   3.223308   117.318   179.514
 H      9   8   7   2.189777   105.739    31.811
 H      9   8   7   2.193065   105.592   145.982
 H      8   7   3   2.170167   108.076   297.606
 H      8   7   3   2.171000   107.983    57.042
 H      7   3   2   2.213877   107.963   101.894
 H      7   3   2   2.205980   108.749   345.745
 C      9   8   7   3.086790   121.486   268.470
 C     16   9   8   3.199993   118.328    96.800
 C     17  16   9   3.174703   116.126   265.409
 H     18  17  16   2.189018   109.013   213.949
 H     18  17  16   2.185908   109.503    94.134
 H     18  17  16   2.186388   109.695   333.693
 H     17  16   9   2.179029   107.784    26.604
 H     17  16   9   2.180768   107.667   144.258
 H     16   9   8   2.190759   108.532   217.849
 H     16   9   8   2.188879   108.492   335.050
 C     19  18  17  63.322541   139.975   104.868
 C     26  19  18   2.637441   147.631   274.762
 C     27  26  19   2.701906   114.101   126.392
 C     28  27  26   2.642445   113.693     0.000
 S     26  19  18   3.133241    94.628    43.656
 H     27  26  19   2.156588   123.785   306.733
 C     28  27  26   3.062145   119.521   180.493
 C     32  28  27   3.228157   125.390   230.362
 C     33  32  28   3.221315   113.137   185.698
 H     34  33  32   2.194470   105.136    22.473
 H     34  33  32   2.195644   105.005   135.873
 H     33  32  28   2.195255   104.747    70.982
 H     33  32  28   2.134034   117.196   311.625
 H     32  28  27   2.209882   107.422   108.009
 H     32  28  27   2.210730   108.256   353.062
 C     34  33  32   3.075916   123.547   258.981
 C     41  34  33   3.210601   111.140   170.989
 C     42  41  34   3.180115   116.413    82.311
 H     43  42  41   2.188045   109.094   278.829
 H     43  42  41   2.187940   109.202   159.285
 H     43  42  41   2.184890   109.762    39.035
 H     42  41  34   2.177290   108.103   320.430
 H     42  41  34   2.180365   107.205   202.695
 H     41  34  33   2.183021   110.059   290.494
 H     41  34  33   2.179928   110.290    50.961
 H      1   2   3   2.003110   127.261   180.000
 H      4   3   2   2.003097   127.206   180.000
 H     26  19  18   2.003096    40.167   191.413
 H     29  28  27   2.003116   127.206   180.000

----------------------------
SLATER BASIS SET DIM= 120
----------------------------
  0 C     2 shells
 l=0 nsto= 1
    2       1.625000000000        1.000000000000
 l=1 nsto= 1
    2       1.625000000000        1.000000000000
  1 C     2 shells
 l=0 nsto= 1
    2       1.625000000000        1.000000000000
 l=1 nsto= 1
    2       1.625000000000        1.000000000000
  2 C     2 shells
 l=0 nsto= 1
    2       1.625000000000        1.000000000000
 l=1 nsto= 1
    2       1.625000000000        1.000000000000
  3 C     2 shells
 l=0 nsto= 1
    2       1.625000000000        1.000000000000
 l=1 nsto= 1
    2       1.625000000000        1.000000000000
  4 S     2 shells
 l=0 nsto= 1
    3       1.925000000000        1.000000000000
 l=1 nsto= 1
    3       1.925000000000        1.000000000000
  5 H     1 shells
 l=0 nsto= 1
    1       1.200000000000        1.000000000000
  6 C     2 shells
 l=0 nsto= 1
    2       1.625000000000        1.000000000000
 l=1 nsto= 1
    2       1.625000000000        1.000000000000
  7 C     2 shells
 l=0 nsto= 1
    2       1.625000000000        1.000000000000
 l=1 nsto= 1
    2       1.625000000000        1.000000000000
  8 C     2 shells
 l=0 nsto= 1
    2       1.625000000000        1.000000000000
 l=1 nsto= 1
    2       1.625000000000        1.000000000000
  9 H     1 shells
 l=0 nsto= 1
    1       1.200000000000        1.000000000000
 10 H     1 shells
 l=0 nsto= 1
    1       1.200000000000        1.000000000000
 11 H     1 shells
 l=0 nsto= 1
    1       1.200000000000        1.000000000000
 12 H     1 shells
 l=0 nsto= 1
    1       1.200000000000        1.000000000000
 13 H     1 shells
 l=0 nsto= 1
    1       1.200000000000        1.000000000000
 14 H     1 shells
 l=0 nsto= 1
    1       1.200000000000        1.000000000000
 15 C     2 shells
 l=0 nsto= 1
    2       1.625000000000        1.000000000000
 l=1 nsto= 1
    2       1.625000000000        1.000000000000
 16 C     2 shells
 l=0 nsto= 1
    2       1.625000000000        1.000000000000
 l=1 nsto= 1
    2       1.625000000000        1.000000000000
 17 C     2 shells
 l=0 nsto= 1
    2       1.625000000000        1.000000000000
 l=1 nsto= 1
    2       1.625000000000        1.000000000000
 18 H     1 shells
 l=0 nsto= 1
    1       1.200000000000        1.000000000000
 19 H     1 shells
 l=0 nsto= 1
    1       1.200000000000        1.000000000000
 20 H     1 shells
 l=0 nsto= 1
    1       1.200000000000        1.000000000000
 21 H     1 shells
 l=0 nsto= 1
    1       1.200000000000        1.000000000000
 22 H     1 shells
 l=0 nsto= 1
    1       1.200000000000        1.000000000000
 23 H     1 shells
 l=0 nsto= 1
    1       1.200000000000        1.000000000000
 24 H     1 shells
 l=0 nsto= 1
    1       1.200000000000        1.000000000000
 25 C     2 shells
 l=0 nsto= 1
    2       1.625000000000        1.000000000000
 l=1 nsto= 1
    2       1.625000000000        1.000000000000
 26 C     2 shells
 l=0 nsto= 1
    2       1.625000000000        1.000000000000
 l=1 nsto= 1
    2       1.625000000000        1.000000000000
 27 C     2 shells
 l=0 nsto= 1
    2       1.625000000000        1.000000000000
 l=1 nsto= 1
    2       1.625000000000        1.000000000000
 28 C     2 shells
 l=0 nsto= 1
    2       1.625000000000        1.000000000000
 l=1 nsto= 1
    2       1.625000000000        1.000000000000
 29 S     2 shells
 l=0 nsto= 1
    3       1.925000000000        1.000000000000
 l=1 nsto= 1
    3       1.925000000000        1.000000000000
 30 H     1 shells
 l=0 nsto= 1
    1       1.200000000000        1.000000000000
 31 C     2 shells
 l=0 nsto= 1
    2       1.625000000000        1.000000000000
 l=1 nsto= 1
    2       1.625000000000        1.000000000000
 32 C     2 shells
 l=0 nsto= 1
    2       1.625000000000        1.000000000000
 l=1 nsto= 1
    2       1.625000000000        1.000000000000
 33 C     2 shells
 l=0 nsto= 1
    2       1.625000000000        1.000000000000
 l=1 nsto= 1
    2       1.625000000000        1.000000000000
 34 H     1 shells
 l=0 nsto= 1
    1       1.200000000000        1.000000000000
 35 H     1 shells
 l=0 nsto= 1
    1       1.200000000000        1.000000000000
 36 H     1 shells
 l=0 nsto= 1
    1       1.200000000000        1.000000000000
 37 H     1 shells
 l=0 nsto= 1
    1       1.200000000000        1.000000000000
 38 H     1 shells
 l=0 nsto= 1
    1       1.200000000000        1.000000000000
 39 H     1 shells
 l=0 nsto= 1
    1       1.200000000000        1.000000000000
 40 C     2 shells
 l=0 nsto= 1
    2       1.625000000000        1.000000000000
 l=1 nsto= 1
    2       1.625000000000        1.000000000000
 41 C     2 shells
 l=0 nsto= 1
    2       1.625000000000        1.000000000000
 l=1 nsto= 1
    2       1.625000000000        1.000000000000
 42 C     2 shells
 l=0 nsto= 1
    2       1.625000000000        1.000000000000
 l=1 nsto= 1
    2       1.625000000000        1.000000000000
 43 H     1 shells
 l=0 nsto= 1
    1       1.200000000000        1.000000000000
 44 H     1 shells
 l=0 nsto= 1
    1       1.200000000000        1.000000000000
 45 H     1 shells
 l=0 nsto= 1
    1       1.200000000000        1.000000000000
 46 H     1 shells
 l=0 nsto= 1
    1       1.200000000000        1.000000000000
 47 H     1 shells
 l=0 nsto= 1
    1       1.200000000000        1.000000000000
 48 H     1 shells
 l=0 nsto= 1
    1       1.200000000000        1.000000000000
 49 H     1 shells
 l=0 nsto= 1
    1       1.200000000000        1.000000000000
 50 H     1 shells
 l=0 nsto= 1
    1       1.200000000000        1.000000000000
 51 H     1 shells
 l=0 nsto= 1
    1       1.200000000000        1.000000000000
 52 H     1 shells
 l=0 nsto= 1
    1       1.200000000000        1.000000000000
 53 H     1 shells
 l=0 nsto= 1
    1       1.200000000000        1.000000000000
------------------------------------------------------------------------------
                           ORCA NDO INTEGRAL CALCULATION
------------------------------------------------------------------------------

--------------
NDO PARAMETERS
--------------

Gamma integral treatment              ... Mataga-Nishimoto
Nuclear repulsuion treatment          ... Direct (ZA*ZB/RAB)
Interaction factors:
s-s (sigma) =    1.0000
s-p (sigma) =    1.0000
s-d (sigma) =    1.0000
p-p (sigma) =    1.2670  p-p(pi) =    0.5850
p-d (sigma) =    1.0000  p-d(pi) =    1.0000
d-d (sigma) =    1.0000  d-d(pi) =    1.0000 d-d (delta) =    1.0000

fGamma parameter for Mataga-Nishimoto gamma integrals:    1.2000

--------------------------
Parameters for Element H :
--------------------------
 One-electron parameters (in eV)
  U(s)  =   -13.060000 Beta(s) =    12.000000 Neff(s) =     1.000000
 One-center electron repulsion parameters (in eV)
  G(s,s)=    12.850000
--------------------------
Parameters for Element C :
--------------------------
 One-electron parameters (in eV)
  U(s)  =   -50.870766 Beta(s) =    17.000000 Neff(s) =     2.000000
  U(p)  =   -41.599980 Beta(p) =    17.000000 Neff(p) =     2.000000 
 One-center electron repulsion parameters (in eV)
  G(s,s)=    11.110000
  G(s,p)=    11.110000 G(p,p)  =    11.110000
 Slater-Condon parameters (in eV)
 F2(p,p)=     4.5098 G1(s,p)=    6.8977
--------------------------
Parameters for Element S :
--------------------------
 One-electron parameters (in eV)
  U(s)  =   -69.509597 Beta(s) =    15.000000 Neff(s) =     2.000000
  U(p)  =   -60.725746 Beta(p) =    15.000000 Neff(p) =     4.000000 
 One-center electron repulsion parameters (in eV)
  G(s,s)=    10.090000
  G(s,p)=    10.090000 G(p,p)  =    10.090000
 Slater-Condon parameters (in eV)
 F2(p,p)=     4.5377 G1(s,p)=    3.0756

 Number of atoms                    ....   54
 Number of basis functions          ....  120

 Overlap integrals                  .... done
 One electron matrix                .... done
 Nuclear repulsion                  .... done
 Integral list                      .... done
 Electron-electron repulsion        .... done
-------------------------------------------------------------------------------
                                 ORCA SCF
-------------------------------------------------------------------------------

------------
SCF SETTINGS
------------
Hamiltonian:
 ZDO-Hamiltonian        Method          .... INDO


General Settings:
 Integral files         IntName         .... /Users/mattyjones/GoogleDrive/Boise/Code/MorphCT/tests/output_EZ/donor_polymer/chromophores/input_orca/pair/00006-00021
 Hartree-Fock type      HFTyp           .... RHF
 Total Charge           Charge          ....    0
 Multiplicity           Mult            ....    1
 Number of Electrons    NEL             ....  124
 Basis Dimension        Dim             ....  120
 Nuclear Repulsion      ENuc            ....    632.6156548310 Eh

Convergence Acceleration:
 DIIS                   CNVDIIS         .... on
   Start iteration      DIISMaxIt       ....    12
   Startup error        DIISStart       ....  0.200000
   # of expansion vecs  DIISMaxEq       ....     5
   Bias factor          DIISBfac        ....   1.050
   Max. coefficient     DIISMaxC        ....  10.000
 Newton-Raphson         CNVNR           .... off
 SOSCF                  CNVSOSCF        .... on
   Start iteration      SOSCFMaxIt      ....   150
   Startup grad/error   SOSCFStart      ....  0.003300
 Level Shifting         CNVShift        .... on
   Level shift para.    LevelShift      ....    0.2500
   Turn off err/grad.   ShiftErr        ....    0.0010
 Zerner damping         CNVZerner       .... off
 Static damping         CNVDamp         .... on
   Fraction old density DampFac         ....    0.7000
   Max. Damping (<1)    DampMax         ....    0.9800
   Min. Damping (>=0)   DampMin         ....    0.0000
   Turn off err/grad.   DampErr         ....    0.1000
 Fernandez-Rico         CNVRico         .... off

SCF Procedure:
 Maximum # iterations   MaxIter         ....   125
 SCF integral mode      SCFMode         .... Conventional
 Integral Buffer length BufferLength    .... 1048576
 Integral index format  IndFormat       ....     0
 Integral value format  ValFormat       ....     0
 Integral Storage       Thresh          ....  1.000e-08 Eh

Convergence Tolerance:
 Convergence Check Mode ConvCheckMode   .... Total+1el-Energy
 Energy Change          TolE            ....  1.000e-06 Eh
 1-El. energy change                    ....  1.000e-03 Eh
 Orbital Gradient       TolG            ....  5.000e-05
 Orbital Rotation angle TolX            ....  5.000e-05
 DIIS Error             TolErr          ....  1.000e-06


Diagonalization of the overlap matrix:
Smallest eigenvalue                        ... 1.698e-01
Time for diagonalization                   ...    0.003 sec
Threshold for overlap eigenvalues          ... 1.000e-08
Number of eigenvalues below threshold      ... 0
Time for construction of square roots      ...    0.001 sec
Total time needed                          ...    0.005 sec

-------------------------------
INITIAL GUESS: EXTENDED HUECKEL
-------------------------------
EHT matrix was read from disk
EHT matrix was diagonalized
Initial density was built
                      ------------------
                      INITIAL GUESS DONE
                      ------------------

 InCore treatment chosen:
   Memory dedicated               ...    1024 MB
   Memory needed                  ...      0 MB
   Number of tiny    integrals    ...       0
   Number of small   integrals    ...       0
   Number of regular integrals    ...    7392

--------------
SCF ITERATIONS
--------------
ITER       Energy         Delta-E        Max-DP      RMS-DP      [F,P]     Damp
  0    -22.6328245366   0.000000000000 0.04205790  0.00144803  0.1044289 0.7000
  1    -22.6745931654  -0.041768628858 0.03983709  0.00136279  0.0736329 0.7000
                               ***Turning on DIIS***
  2    -22.7054844427  -0.030891277265 0.10145827  0.00349396  0.0483340 0.0000
  3    -22.7872913671  -0.081806924441 0.01762258  0.00072081  0.0209635 0.0000
  4    -22.7711048985   0.016186468692 0.01144173  0.00049427  0.0067135 0.0000
  5    -22.7882427206  -0.017137822126 0.00800423  0.00033437  0.0038759 0.0000
  6    -22.7903293091  -0.002086588528 0.00603302  0.00023731  0.0021877 0.0000
                      *** Initiating the SOSCF procedure ***
                           *** Shutting down DIIS ***
                      *** Re-Reading the Fockian *** 
                      *** Removing any level shift *** 
ITER      Energy       Delta-E        Grad      Rot      Max-DP    RMS-DP
  7    -22.78646909   0.0038602148  0.003015  0.003015  0.003592  0.000133
  8    -22.78466709   0.0018020024  0.000796  0.002184  0.001776  0.000061
  9    -22.78468132  -0.0000142304  0.000351  0.002133  0.001984  0.000064
 10    -22.78468651  -0.0000051876  0.000027  0.000068  0.000122  0.000004
                 **** Energy Check signals convergence ****
              ***Rediagonalizing the Fockian in SOSCF/NRSCF***

               *****************************************************
               *                     SUCCESS                       *
               *           SCF CONVERGED AFTER  11 CYCLES          *
               *****************************************************


----------------
TOTAL SCF ENERGY
----------------

Total Energy       :          -22.78468656 Eh            -620.00284 eV

Components:
Nuclear Repulsion  :          632.61565483 Eh           17214.34713 eV
Electronic Energy  :         -655.40034139 Eh          -17834.34997 eV

One Electron Energy:        -1220.40108171 Eh          -33208.80174 eV
Two Electron Energy:          565.00074033 Eh           15374.45177 eV


---------------
SCF CONVERGENCE
---------------

  Last Energy change         ...   -4.6439e-08  Tolerance :   1.0000e-06
  Last MAX-Density change    ...    4.1327e-05  Tolerance :   1.0000e-05
  Last RMS-Density change    ...    1.3228e-06  Tolerance :   1.0000e-06
  Last Orbital Gradient      ...    9.2321e-06  Tolerance :   5.0000e-05
  Last Orbital Rotation      ...    1.9603e-05  Tolerance :   5.0000e-05

             **** THE GBW FILE WAS UPDATED (/Users/mattyjones/GoogleDrive/Boise/Code/MorphCT/tests/output_EZ/donor_polymer/chromophores/input_orca/pair/00006-00021.gbw) ****
             **** DENSITY FILE WAS UPDATED (/Users/mattyjones/GoogleDrive/Boise/Code/MorphCT/tests/output_EZ/donor_polymer/chromophores/input_orca/pair/00006-00021.scfp.tmp) ****
             **** ENERGY FILE WAS UPDATED (/Users/mattyjones/GoogleDrive/Boise/Code/MorphCT/tests/output_EZ/donor_polymer/chromophores/input_orca/pair/00006-00021.en.tmp) ****
----------------
ORBITAL ENERGIES
----------------

  NO   OCC          E(Eh)            E(eV) 
   0   2.0000      -1.555763       -42.3345 
   1   2.0000      -1.555737       -42.3338 
   2   2.0000      -1.399706       -38.0879 
   3   2.0000      -1.394542       -37.9474 
   4   2.0000      -1.290385       -35.1132 
   5   2.0000      -1.283252       -34.9191 
   6   2.0000      -1.182478       -32.1769 
   7   2.0000      -1.171041       -31.8656 
   8   2.0000      -1.110313       -30.2131 
   9   2.0000      -1.109265       -30.1846 
  10   2.0000      -1.061233       -28.8776 
  11   2.0000      -1.059826       -28.8393 
  12   2.0000      -0.953555       -25.9476 
  13   2.0000      -0.949894       -25.8479 
  14   2.0000      -0.886513       -24.1232 
  15   2.0000      -0.886375       -24.1195 
  16   2.0000      -0.864271       -23.5180 
  17   2.0000      -0.857526       -23.3345 
  18   2.0000      -0.839328       -22.8393 
  19   2.0000      -0.838576       -22.8188 
  20   2.0000      -0.790081       -21.4992 
  21   2.0000      -0.788163       -21.4470 
  22   2.0000      -0.726485       -19.7686 
  23   2.0000      -0.721186       -19.6245 
  24   2.0000      -0.699921       -19.0458 
  25   2.0000      -0.691123       -18.8064 
  26   2.0000      -0.672146       -18.2900 
  27   2.0000      -0.661968       -18.0131 
  28   2.0000      -0.645501       -17.5650 
  29   2.0000      -0.640889       -17.4395 
  30   2.0000      -0.619735       -16.8638 
  31   2.0000      -0.619094       -16.8464 
  32   2.0000      -0.586760       -15.9665 
  33   2.0000      -0.581863       -15.8333 
  34   2.0000      -0.576110       -15.6767 
  35   2.0000      -0.575017       -15.6470 
  36   2.0000      -0.573585       -15.6080 
  37   2.0000      -0.565065       -15.3762 
  38   2.0000      -0.555036       -15.1033 
  39   2.0000      -0.553457       -15.0603 
  40   2.0000      -0.534185       -14.5359 
  41   2.0000      -0.533625       -14.5207 
  42   2.0000      -0.515092       -14.0164 
  43   2.0000      -0.511961       -13.9312 
  44   2.0000      -0.509462       -13.8632 
  45   2.0000      -0.506896       -13.7933 
  46   2.0000      -0.497505       -13.5378 
  47   2.0000      -0.494635       -13.4597 
  48   2.0000      -0.489557       -13.3215 
  49   2.0000      -0.488386       -13.2897 
  50   2.0000      -0.484109       -13.1733 
  51   2.0000      -0.478755       -13.0276 
  52   2.0000      -0.469607       -12.7786 
  53   2.0000      -0.467169       -12.7123 
  54   2.0000      -0.462423       -12.5832 
  55   2.0000      -0.461462       -12.5570 
  56   2.0000      -0.438404       -11.9296 
  57   2.0000      -0.438291       -11.9265 
  58   2.0000      -0.357692        -9.7333 
  59   2.0000      -0.357655        -9.7323 
  60   2.0000      -0.305167        -8.3040 
  61   2.0000      -0.305003        -8.2996 
  62   0.0000       0.007119         0.1937 
  63   0.0000       0.007288         0.1983 
  64   0.0000       0.065052         1.7702 
  65   0.0000       0.066012         1.7963 
  66   0.0000       0.075243         2.0475 
  67   0.0000       0.075245         2.0475 
  68   0.0000       0.085495         2.3264 
  69   0.0000       0.087088         2.3698 
  70   0.0000       0.104319         2.8387 
  71   0.0000       0.105123         2.8605 
  72   0.0000       0.107333         2.9207 
  73   0.0000       0.107336         2.9208 
  74   0.0000       0.122966         3.3461 
  75   0.0000       0.125488         3.4147 
  76   0.0000       0.142395         3.8748 
  77   0.0000       0.144819         3.9407 
  78   0.0000       0.156363         4.2549 
  79   0.0000       0.158868         4.3230 
  80   0.0000       0.165886         4.5140 
  81   0.0000       0.166053         4.5185 
  82   0.0000       0.168182         4.5765 
  83   0.0000       0.170126         4.6294 
  84   0.0000       0.203390         5.5345 
  85   0.0000       0.203583         5.5398 
  86   0.0000       0.231441         6.2978 
  87   0.0000       0.232592         6.3291 
  88   0.0000       0.233787         6.3617 
  89   0.0000       0.234731         6.3873 
  90   0.0000       0.236684         6.4405 
  91   0.0000       0.236711         6.4412 
  92   0.0000       0.237900         6.4736 
  93   0.0000       0.239111         6.5066 
  94   0.0000       0.239533         6.5180 
  95   0.0000       0.242051         6.5865 
  96   0.0000       0.242596         6.6014 
  97   0.0000       0.243904         6.6370 
  98   0.0000       0.244172         6.6442 
  99   0.0000       0.245006         6.6669 
 100   0.0000       0.248204         6.7540 
 101   0.0000       0.255617         6.9557 
 102   0.0000       0.257671         7.0116 
 103   0.0000       0.260441         7.0870 
 104   0.0000       0.266191         7.2434 
 105   0.0000       0.266383         7.2487 
 106   0.0000       0.276716         7.5298 
 107   0.0000       0.276851         7.5335 
 108   0.0000       0.303286         8.2528 
 109   0.0000       0.304935         8.2977 
 110   0.0000       0.309974         8.4348 
 111   0.0000       0.310097         8.4382 
 112   0.0000       0.340273         9.2593 
 113   0.0000       0.342018         9.3068 
 114   0.0000       0.353754         9.6261 
 115   0.0000       0.355002         9.6601 
 116   0.0000       0.414182        11.2705 
 117   0.0000       0.414388        11.2761 
 118   0.0000       0.428909        11.6712 
 119   0.0000       0.429799        11.6954 
-------
TIMINGS
-------

Total SCF time: 0 days 0 hours 0 min 0 sec 

Total time                  ....       0.130 sec
Sum of individual times     ....       0.106 sec  ( 81.8%)

Fock matrix formation       ....       0.048 sec  ( 37.3%)
Diagonalization             ....       0.027 sec  ( 21.0%)
Density matrix formation    ....       0.006 sec  (  4.3%)
Population analysis         ....       0.000 sec  (  0.0%)
Initial guess               ....       0.003 sec  (  2.5%)
Orbital Transformation      ....       0.000 sec  (  0.0%)
Orbital Orthonormalization  ....       0.000 sec  (  0.0%)
DIIS solution               ....       0.015 sec  ( 11.3%)
SOSCF solution              ....       0.007 sec  (  5.4%)

-------------------------   --------------------
FINAL SINGLE POINT ENERGY       -22.784686556430
-------------------------   --------------------


                            ***************************************
                            *     ORCA property calculations      *
                            ***************************************

                                    ---------------------
                                    Active property flags
                                    ---------------------
   (+) Dipole Moment


------------------------------------------------------------------------------
                       ORCA ELECTRIC PROPERTIES CALCULATION
------------------------------------------------------------------------------

Dipole Moment Calculation                       ... on
Quadrupole Moment Calculation                   ... off
Polarizability Calculation                      ... off
GBWName                                         ... /Users/mattyjones/GoogleDrive/Boise/Code/MorphCT/tests/output_EZ/donor_polymer/chromophores/input_orca/pair/00006-00021.gbw
Electron density file                           ... /Users/mattyjones/GoogleDrive/Boise/Code/MorphCT/tests/output_EZ/donor_polymer/chromophores/input_orca/pair/00006-00021.scfp.tmp

-------------
DIPOLE MOMENT
-------------
                                X             Y             Z
Electronic contribution:    217.65517     157.30073     -37.26497
Nuclear contribution   :   -117.03262     -84.23346      20.44646
                        -----------------------------------------
Total Dipole Moment    :    100.62255      73.06726     -16.81851
                        -----------------------------------------
Magnitude (a.u.)       :    125.48540
Magnitude (Debye)      :    318.95854


Timings for individual modules:

Sum of individual times         ...        0.251 sec (=   0.004 min)
STO integral calculation        ...        0.084 sec (=   0.001 min)  33.5 %
SCF iterations                  ...        0.167 sec (=   0.003 min)  66.5 %
                             ****ORCA TERMINATED NORMALLY****
TOTAL RUN TIME: 0 days 0 hours 0 minutes 0 seconds 554 msec

