
                                 *****************
                                 * O   R   C   A *
                                 *****************

           --- An Ab Initio, DFT and Semiempirical electronic structure package ---

                  #######################################################
                  #                        -***-                        #
                  #  Department of molecular theory and spectroscopy    #
                  #              Directorship: Frank Neese              #
                  # Max Planck Institute for Chemical Energy Conversion #
                  #                  D-45470 Muelheim/Ruhr              #
                  #                       Germany                       #
                  #                                                     #
                  #                  All rights reserved                #
                  #                        -***-                        #
                  #######################################################


                         Program Version 3.0.3 - RELEASE   -


 With contributions from (in alphabetic order):
   Ute Becker             : Parallelization
   Dmytro Bykov           : SCF Hessian
   Dmitry Ganyushin       : Spin-Orbit,Spin-Spin,Magnetic field MRCI
   Andreas Hansen         : Spin unrestricted coupled pair/coupled cluster methods
   Dimitrios Liakos       : Extrapolation schemes; parallel MDCI
   Robert Izsak           : Overlap fitted RIJCOSX, COSX-SCS-MP3
   Christian Kollmar      : KDIIS, OOCD, Brueckner-CCSD(T), CCSD density
   Simone Kossmann        : Meta GGA functionals, TD-DFT gradient, OOMP2, MP2 Hessian
   Taras Petrenko         : DFT Hessian,TD-DFT gradient, ASA and ECA modules, normal mode analysis, Resonance Raman, ABS, FL, XAS/XES, NRVS
   Christoph Reimann      : Effective Core Potentials
   Michael Roemelt        : Restricted open shell CIS
   Christoph Riplinger    : Improved optimizer, TS searches, QM/MM, DLPNO-CCSD
   Barbara Sandhoefer     : DKH picture change effects
   Igor Schapiro          : Molecular dynamics
   Kantharuban Sivalingam : CASSCF convergence, NEVPT2
   Boris Wezisla          : Elementary symmetry handling
   Frank Wennmohs         : Technical directorship


 We gratefully acknowledge several colleagues who have allowed us to
 interface, adapt or use parts of their codes:
   Stefan Grimme, W. Hujo, H. Kruse, T. Risthaus : VdW corrections, initial TS optimization,
                                                   DFT functionals, gCP
   Ed Valeev                                     : LibInt (2-el integral package), F12 methods
   Garnet Chan, S. Sharma, R. Olivares           : DMRG
   Ulf Ekstrom                                   : XCFun DFT Library
   Mihaly Kallay                                 : mrcc  (arbitrary order and MRCC methods)
   Andreas Klamt, Michael Diedenhofen            : otool_cosmo (COSMO solvation model)
   Frank Weinhold                                : gennbo (NPA and NBO analysis)
   Christopher J. Cramer and Donald G. Truhlar   : smd solvation model


 Your calculation uses the libint2 library for the computation of 2-el integrals
 For citations please refer to: http://libint.valeyev.net

 This ORCA versions uses:
   CBLAS   interface :  Fast vector & matrix operations
   LAPACKE interface :  Fast linear algebra routines
   SCALAPACK package :  Parallel linear algebra routines


leaving
================================================================================
                                        WARNINGS
                       Please study these warnings very carefully!
================================================================================
Now building the actual basis set

WARNING: Direct SCF is incompatible with Method<>HF and Method<>DFT
  ===> : conventional SCF is chosen

WARNING: The NDO methods need Guess=HUECKEL or Guess=HCORE or Guess=MOREAD
  ===> : Guess is set to Hueckel

WARNING: The NDO methods need %rel::SOCType==1
  ===> : %rel::SOCType is set to 1

WARNING: The NDO methods cannot have frozencore=1
  ===> : %method FrozenCore=0 end


INFO   : the flag for use of LIBINT has been found!

================================================================================
                                       INPUT FILE
================================================================================
NAME = /Users/mattyjones/GoogleDrive/Boise/Code/MorphCT/tests/output_EZ/donor_polymer/chromophores/input_orca/pair/00004-00014.inp
|  1> # ================================================================
|  2> # Orca input file made by Matty Jones
|  3> # ================================================================
|  4> ! ZINDO/S 
|  5> ! NOPOP
|  6> ! NOMOPRINT
|  7> * xyz 0   1
|  8>  C  -6.70883  14.79168  26.32488
|  9>  C  -7.30659  13.58405  25.96127
| 10>  C  -6.80484  12.44774  26.66929
| 11>  C  -5.80583  12.75968  27.59666
| 12>  S  -5.59883  14.40189  27.49324
| 13>  H  -8.13520  13.47756  25.18315
| 14>  C  -7.40552  10.96787  26.38203
| 15>  C  -9.09481  10.67433  26.56564
| 16>  C  -10.51869  10.78595  25.60646
| 17>  H  -11.21080  9.96219  26.05239
| 18>  H  -10.96563  11.81481  25.91614
| 19>  H  -9.11129  9.55784  26.88493
| 20>  H  -9.36199  11.32017  27.49188
| 21>  H  -6.86906  10.15193  27.00687
| 22>  H  -7.20278  10.71553  25.25544
| 23>  C  -10.67467  10.69170  23.98564
| 24>  C  -11.16983  9.18985  23.36227
| 25>  C  -12.83999  8.97094  23.22827
| 26>  H  -13.06384  7.84471  23.08111
| 27>  H  -13.23343  9.56605  22.31784
| 28>  H  -13.35605  9.34654  24.19304
| 29>  H  -10.72141  9.08660  22.30582
| 30>  H  -10.75326  8.36122  24.04369
| 31>  H  -11.45975  11.46907  23.63841
| 32>  H  -9.66046  10.94671  23.49310
| 33>  C  11.01047  -6.91157  -28.17660
| 34>  C  10.28668  -7.92306  -27.54341
| 35>  C  11.09640  -8.86406  -26.83409
| 36>  C  12.46649  -8.59424  -26.90754
| 37>  S  12.60202  -7.22488  -27.83322
| 38>  H  9.14846  -8.00356  -27.57487
| 39>  C  10.52573  -10.14454  -26.01615
| 40>  C  9.19222  -10.03570  -24.94680
| 41>  C  8.81011  -11.48714  -24.11252
| 42>  H  8.50163  -11.11064  -23.05433
| 43>  H  9.83215  -12.02766  -24.00967
| 44>  H  8.27273  -9.74589  -25.57420
| 45>  H  9.41898  -9.22292  -24.16939
| 46>  H  11.38962  -10.57227  -25.35252
| 47>  H  10.23472  -10.97224  -26.77818
| 48>  C  7.71064  -12.63685  -24.50644
| 49>  C  8.04235  -14.08879  -23.67179
| 50>  C  6.99347  -15.39495  -23.85051
| 51>  H  6.95837  -15.71875  -24.95972
| 52>  H  5.93619  -15.08708  -23.49673
| 53>  H  7.37688  -16.27588  -23.20241
| 54>  H  9.07523  -14.44317  -24.04974
| 55>  H  8.11261  -13.84246  -22.54881
| 56>  H  7.71529  -12.84491  -25.63744
| 57>  H  6.65513  -12.29509  -24.18168
| 58>  H  -6.91995  15.75494  25.93608
| 59>  H  -5.28904  12.08729  28.23260
| 60>  H  10.62416  -6.11172  -28.75504
| 61>  H  13.25364  -9.14883  -26.46435
| 62> *
| 63> 
| 64>                          ****END OF INPUT****
================================================================================

                       ****************************
                       * Single Point Calculation *
                       ****************************

---------------------------------
CARTESIAN COORDINATES (ANGSTROEM)
---------------------------------
  C     -6.708830   14.791680   26.324880
  C     -7.306590   13.584050   25.961270
  C     -6.804840   12.447740   26.669290
  C     -5.805830   12.759680   27.596660
  S     -5.598830   14.401890   27.493240
  H     -8.135200   13.477560   25.183150
  C     -7.405520   10.967870   26.382030
  C     -9.094810   10.674330   26.565640
  C    -10.518690   10.785950   25.606460
  H    -11.210800    9.962190   26.052390
  H    -10.965630   11.814810   25.916140
  H     -9.111290    9.557840   26.884930
  H     -9.361990   11.320170   27.491880
  H     -6.869060   10.151930   27.006870
  H     -7.202780   10.715530   25.255440
  C    -10.674670   10.691700   23.985640
  C    -11.169830    9.189850   23.362270
  C    -12.839990    8.970940   23.228270
  H    -13.063840    7.844710   23.081110
  H    -13.233430    9.566050   22.317840
  H    -13.356050    9.346540   24.193040
  H    -10.721410    9.086600   22.305820
  H    -10.753260    8.361220   24.043690
  H    -11.459750   11.469070   23.638410
  H     -9.660460   10.946710   23.493100
  C     11.010470   -6.911570  -28.176600
  C     10.286680   -7.923060  -27.543410
  C     11.096400   -8.864060  -26.834090
  C     12.466490   -8.594240  -26.907540
  S     12.602020   -7.224880  -27.833220
  H      9.148460   -8.003560  -27.574870
  C     10.525730  -10.144540  -26.016150
  C      9.192220  -10.035700  -24.946800
  C      8.810110  -11.487140  -24.112520
  H      8.501630  -11.110640  -23.054330
  H      9.832150  -12.027660  -24.009670
  H      8.272730   -9.745890  -25.574200
  H      9.418980   -9.222920  -24.169390
  H     11.389620  -10.572270  -25.352520
  H     10.234720  -10.972240  -26.778180
  C      7.710640  -12.636850  -24.506440
  C      8.042350  -14.088790  -23.671790
  C      6.993470  -15.394950  -23.850510
  H      6.958370  -15.718750  -24.959720
  H      5.936190  -15.087080  -23.496730
  H      7.376880  -16.275880  -23.202410
  H      9.075230  -14.443170  -24.049740
  H      8.112610  -13.842460  -22.548810
  H      7.715290  -12.844910  -25.637440
  H      6.655130  -12.295090  -24.181680
  H     -6.919950   15.754940   25.936080
  H     -5.289040   12.087290   28.232600
  H     10.624160   -6.111720  -28.755040
  H     13.253640   -9.148830  -26.464350

----------------------------
CARTESIAN COORDINATES (A.U.)
----------------------------
  NO LB      ZA    FRAG    MASS        X           Y           Z
   0 C     4.0000    0    12.011        -12.677851379034911         27.952224260600300         49.746813708340881
   1 C     4.0000    0    12.011        -13.807454072847678         25.670134289492978         49.059690388785768
   2 C     4.0000    0    12.011        -12.859283985152691         23.522819586256919         50.397654286124698
   3 C     4.0000    0    12.011        -10.971428680104021         24.112300756472315         52.150129610939246
   4 S     6.0000    0    32.060        -10.580255370382321         27.215627910859133         51.954694134169117
   5 H     1.0000    0     1.008        -15.373300044676165         25.468897353491705         47.589256689458971
   6 C     4.0000    0    12.011        -13.994404679276508         20.726270572450879         49.854811556894482
   7 C     4.0000    0    12.011        -17.186700140048341         20.171560363099633         50.201784172343757
   8 C     4.0000    0    12.011        -19.877443387616129         20.382491594167924         48.389196659209169
   9 H     1.0000    0     1.008        -21.185341742164368         18.825810794088955         49.231882234108674
  10 H     1.0000    0     1.008        -20.722037585910897         22.326755224314141         48.974407048361904
  11 H     1.0000    0     1.008        -17.217842826735360         18.061700031837898         50.805154829643477
  12 H     1.0000    0     1.008        -17.691597168509421         21.392021089431335         51.952124106626975
  13 H     1.0000    0     1.008        -12.980642197473113         19.184367430739172         51.035588034413834
  14 H     1.0000    0     1.008        -13.611281602885313         20.249417079817189         47.725864991680133
  15 C     4.0000    0    12.011        -20.172202869985171         20.204384906045849         45.326290746826928
  16 C     4.0000    0    12.011        -21.107919662457611         17.366299711816215         44.148292166724438
  17 C     4.0000    0    12.011        -24.264064662287531         16.952619763839515         43.895068864778992
  18 H     1.0000    0     1.008        -24.687079857365806         14.824353500033382         43.616976766911137
  19 H     1.0000    0     1.008        -25.007558512417511         18.077214683397390         42.174605500673067
  20 H     1.0000    0     1.008        -25.239276730958935         17.662400899740334         45.718219947002197
  21 H     1.0000    0     1.008        -20.260528669484646         17.171185488488845         42.151890992543336
  22 H     1.0000    0     1.008        -20.320716446850039         15.800415945465046         45.435989348901060
  23 H     1.0000    0     1.008        -21.655789063204065         21.673401310772210         44.670121141345454
  24 H     1.0000    0     1.008        -18.255623727700897         20.686283967457104         44.395525036825354
  25 C     4.0000    0    12.011         20.806772905755924        -13.060974455426106        -53.246057385045539
  26 C     4.0000    0    12.011         19.439008027285062        -14.972413542626112        -52.049501694307942
  27 C     4.0000    0    12.011         20.969157072443775        -16.750645834646011        -50.709081152994919
  28 C     4.0000    0    12.011         23.558251951267945        -16.240759929191377        -50.847881537531435
  29 S     6.0000    0    32.060         23.814366534198292        -13.653044550444973        -52.597163225179663
  30 H     1.0000    0     1.008         17.288083947133213        -15.124536496406773        -52.108952478481108
  31 C     4.0000    0    12.011         19.890747059598937        -19.170402354609493        -49.163398559015370
  32 C     4.0000    0    12.011         17.370778362753608        -18.964724562193506        -47.142619917706682
  33 C     4.0000    0    12.011         16.648695109720958        -21.707548662012169        -45.566059198698859
  34 H     1.0000    0     1.008         16.065752391928932        -20.996066772590815        -43.566369901044730
  35 H     1.0000    0     1.008         18.580070807633835        -22.728983431919279        -45.371700865825055
  36 H     1.0000    0     1.008         15.633194079874356        -18.417063031321785        -48.328234094128874
  37 H     1.0000    0     1.008         17.799292660881591        -17.428792955064992        -45.673527923934962
  38 H     1.0000    0     1.008         21.523262569432166        -19.978694913871632        -47.909319604761208
  39 H     1.0000    0     1.008         19.340817857366513        -20.734528675656112        -50.603426564847382
  40 C     4.0000    0    12.011         14.570997917258559        -23.880185695442769        -46.310460117373118
  41 C     4.0000    0    12.011         15.197838973141581        -26.623954658328390        -44.733200199695752
  42 C     4.0000    0    12.011         13.215743025794257        -29.092239345410974        -45.070932054350152
  43 H     1.0000    0     1.008         13.149413638493620        -29.704132667574676        -47.167035179356944
  44 H     1.0000    0     1.008         11.217773378921995        -28.510449360560639        -44.402384742691488
  45 H     1.0000    0     1.008         13.940282922801003        -30.756955788566223        -43.846200546955792
  46 H     1.0000    0     1.008         17.149699302346161        -27.293635805667407        -45.447422192011281
  47 H     1.0000    0     1.008         15.330611131310885        -26.158458419759572        -42.611075545824860
  48 H     1.0000    0     1.008         14.579785143781294        -24.273362114866426        -48.447740374838055
  49 H     1.0000    0     1.008         12.576373085643340        -23.234352891913844        -45.696752658120850
  50 H     1.0000    0     1.008        -13.076810360428366         29.772521856361283         49.012088187472301
  51 H     1.0000    0     1.008         -9.994837111354856         22.841667801285006         53.351882048545136
  52 H     1.0000    0     1.008         20.076752802960804        -11.549477007209193        -54.339150569950952
  53 H     1.0000    0     1.008         25.045749877584058        -17.288783145802764        -50.010373812238875

--------------------------------
INTERNAL COORDINATES (ANGSTROEM)
--------------------------------
 C      0   0   0   0.000000     0.000     0.000
 C      1   0   0   1.395672     0.000     0.000
 C      2   1   0   1.429771   114.102     0.000
 C      3   2   1   1.398336   113.693     0.000
 S      1   2   3   1.658041   105.480     0.000
 H      2   1   3   1.141668   124.689   179.156
 C      3   2   1   1.622760   120.478   179.184
 C      7   3   2   1.724407   119.935   303.193
 C      8   7   3   1.720442   137.762    87.681
 H      9   8   7   1.164667   103.442   150.890
 H      9   8   7   1.163705   103.112   262.441
 H      8   7   3   1.161365   101.936   210.560
 H      8   7   3   1.160351   102.463   322.504
 H      7   3   2   1.159298   112.033   177.969
 H      7   3   2   1.172171   107.604    61.056
 C      9   8   7   1.631034   129.008    26.295
 C     16   9   8   1.699802   116.318    99.018
 C     17  16   9   1.689767   115.561    89.258
 H     18  17  16   1.157652   109.101   195.535
 H     18  17  16   1.156648   109.389    75.708
 H     18  17  16   1.156795   109.435   315.458
 H     17  16   9   1.152314   107.579   209.307
 H     17  16   9   1.150866   108.275   327.824
 H     16   9   8   1.158112   108.904   219.430
 H     16   9   8   1.155962   109.073   337.797
 C     22  17  16  57.242386   168.908   152.975
 C     26  22  17   1.395677    66.769    20.364
 C     27  26  22   1.429777   114.102   261.603
 C     28  27  26   1.398336   113.693     0.000
 S     26  22  17   1.658042   103.568   279.108
 H     27  26  22   1.141497   123.760    81.316
 C     28  27  26   1.623059   124.759   180.413
 C     32  28  27   1.712777   122.564   313.873
 C     33  32  28   1.717181   115.016   183.487
 H     34  33  32   1.164765   103.127   142.263
 H     34  33  32   1.160735   103.929    30.014
 H     33  32  28   1.150253   107.328    63.983
 H     33  32  28   1.147344   108.311   304.745
 H     32  28  27   1.170326   108.334   192.774
 H     32  28  27   1.162095   108.633    76.592
 C     34  33  32   1.638853   128.717   264.873
 C     41  34  33   1.707279   110.411   161.876
 C     42  41  34   1.684679   119.113   176.658
 H     43  42  41   1.156039   109.746    60.801
 H     43  42  41   1.156627   109.287   300.227
 H     43  42  41   1.158911   108.908   180.652
 H     42  41  34   1.155540   105.937   296.468
 H     42  41  34   1.151824   107.855    53.372
 H     41  34  33   1.149988   111.137    40.747
 H     41  34  33   1.156015   109.732   279.514
 H      1   2   3   1.060003   127.260   180.000
 H      4   3   2   1.060000   127.206   180.000
 H     26  22  17   1.059994    97.586   147.774
 H     29  28  27   1.059996   127.206   179.999

---------------------------
INTERNAL COORDINATES (A.U.)
---------------------------
 C      0   0   0   0.000000     0.000     0.000
 C      1   0   0   2.637437     0.000     0.000
 C      2   1   0   2.701876   114.102     0.000
 C      3   2   1   2.642471   113.693     0.000
 S      1   2   3   3.133244   105.480     0.000
 H      2   1   3   2.157439   124.689   179.156
 C      3   2   1   3.066572   120.478   179.184
 C      7   3   2   3.258657   119.935   303.193
 C      8   7   3   3.251164   137.762    87.681
 H      9   8   7   2.200903   103.442   150.890
 H      9   8   7   2.199084   103.112   262.441
 H      8   7   3   2.194661   101.936   210.560
 H      8   7   3   2.192746   102.463   322.504
 H      7   3   2   2.190756   112.033   177.969
 H      7   3   2   2.215081   107.604    61.056
 C      9   8   7   3.082207   129.008    26.295
 C     16   9   8   3.212160   116.318    99.018
 C     17  16   9   3.193197   115.561    89.258
 H     18  17  16   2.187646   109.101   195.535
 H     18  17  16   2.185747   109.389    75.708
 H     18  17  16   2.186026   109.435   315.458
 H     17  16   9   2.177558   107.579   209.307
 H     17  16   9   2.174821   108.275   327.824
 H     16   9   8   2.188515   108.904   219.430
 H     16   9   8   2.184451   109.073   337.797
 C     22  17  16 108.172433   168.908   152.975
 C     26  22  17   2.637447    66.769    20.364
 C     27  26  22   2.701887   114.102   261.603
 C     28  27  26   2.642473   113.693     0.000
 S     26  22  17   3.133246   103.568   279.108
 H     27  26  22   2.157116   123.760    81.316
 C     28  27  26   3.067136   124.759   180.413
 C     32  28  27   3.236679   122.564   313.873
 C     33  32  28   3.245001   115.016   183.487
 H     34  33  32   2.201087   103.127   142.263
 H     34  33  32   2.193471   103.929    30.014
 H     33  32  28   2.173664   107.328    63.983
 H     33  32  28   2.168166   108.311   304.745
 H     32  28  27   2.211596   108.334   192.774
 H     32  28  27   2.196041   108.633    76.592
 C     34  33  32   3.096984   128.717   264.873
 C     41  34  33   3.226290   110.411   161.876
 C     42  41  34   3.183582   119.113   176.658
 H     43  42  41   2.184596   109.746    60.801
 H     43  42  41   2.185708   109.287   300.227
 H     43  42  41   2.190024   108.908   180.652
 H     42  41  34   2.183654   105.937   296.468
 H     42  41  34   2.176632   107.855    53.372
 H     41  34  33   2.173162   111.137    40.747
 H     41  34  33   2.184551   109.732   279.514
 H      1   2   3   2.003116   127.260   180.000
 H      4   3   2   2.003110   127.206   180.000
 H     26  22  17   2.003099    97.586   147.774
 H     29  28  27   2.003103   127.206   179.999

----------------------------
SLATER BASIS SET DIM= 120
----------------------------
  0 C     2 shells
 l=0 nsto= 1
    2       1.625000000000        1.000000000000
 l=1 nsto= 1
    2       1.625000000000        1.000000000000
  1 C     2 shells
 l=0 nsto= 1
    2       1.625000000000        1.000000000000
 l=1 nsto= 1
    2       1.625000000000        1.000000000000
  2 C     2 shells
 l=0 nsto= 1
    2       1.625000000000        1.000000000000
 l=1 nsto= 1
    2       1.625000000000        1.000000000000
  3 C     2 shells
 l=0 nsto= 1
    2       1.625000000000        1.000000000000
 l=1 nsto= 1
    2       1.625000000000        1.000000000000
  4 S     2 shells
 l=0 nsto= 1
    3       1.925000000000        1.000000000000
 l=1 nsto= 1
    3       1.925000000000        1.000000000000
  5 H     1 shells
 l=0 nsto= 1
    1       1.200000000000        1.000000000000
  6 C     2 shells
 l=0 nsto= 1
    2       1.625000000000        1.000000000000
 l=1 nsto= 1
    2       1.625000000000        1.000000000000
  7 C     2 shells
 l=0 nsto= 1
    2       1.625000000000        1.000000000000
 l=1 nsto= 1
    2       1.625000000000        1.000000000000
  8 C     2 shells
 l=0 nsto= 1
    2       1.625000000000        1.000000000000
 l=1 nsto= 1
    2       1.625000000000        1.000000000000
  9 H     1 shells
 l=0 nsto= 1
    1       1.200000000000        1.000000000000
 10 H     1 shells
 l=0 nsto= 1
    1       1.200000000000        1.000000000000
 11 H     1 shells
 l=0 nsto= 1
    1       1.200000000000        1.000000000000
 12 H     1 shells
 l=0 nsto= 1
    1       1.200000000000        1.000000000000
 13 H     1 shells
 l=0 nsto= 1
    1       1.200000000000        1.000000000000
 14 H     1 shells
 l=0 nsto= 1
    1       1.200000000000        1.000000000000
 15 C     2 shells
 l=0 nsto= 1
    2       1.625000000000        1.000000000000
 l=1 nsto= 1
    2       1.625000000000        1.000000000000
 16 C     2 shells
 l=0 nsto= 1
    2       1.625000000000        1.000000000000
 l=1 nsto= 1
    2       1.625000000000        1.000000000000
 17 C     2 shells
 l=0 nsto= 1
    2       1.625000000000        1.000000000000
 l=1 nsto= 1
    2       1.625000000000        1.000000000000
 18 H     1 shells
 l=0 nsto= 1
    1       1.200000000000        1.000000000000
 19 H     1 shells
 l=0 nsto= 1
    1       1.200000000000        1.000000000000
 20 H     1 shells
 l=0 nsto= 1
    1       1.200000000000        1.000000000000
 21 H     1 shells
 l=0 nsto= 1
    1       1.200000000000        1.000000000000
 22 H     1 shells
 l=0 nsto= 1
    1       1.200000000000        1.000000000000
 23 H     1 shells
 l=0 nsto= 1
    1       1.200000000000        1.000000000000
 24 H     1 shells
 l=0 nsto= 1
    1       1.200000000000        1.000000000000
 25 C     2 shells
 l=0 nsto= 1
    2       1.625000000000        1.000000000000
 l=1 nsto= 1
    2       1.625000000000        1.000000000000
 26 C     2 shells
 l=0 nsto= 1
    2       1.625000000000        1.000000000000
 l=1 nsto= 1
    2       1.625000000000        1.000000000000
 27 C     2 shells
 l=0 nsto= 1
    2       1.625000000000        1.000000000000
 l=1 nsto= 1
    2       1.625000000000        1.000000000000
 28 C     2 shells
 l=0 nsto= 1
    2       1.625000000000        1.000000000000
 l=1 nsto= 1
    2       1.625000000000        1.000000000000
 29 S     2 shells
 l=0 nsto= 1
    3       1.925000000000        1.000000000000
 l=1 nsto= 1
    3       1.925000000000        1.000000000000
 30 H     1 shells
 l=0 nsto= 1
    1       1.200000000000        1.000000000000
 31 C     2 shells
 l=0 nsto= 1
    2       1.625000000000        1.000000000000
 l=1 nsto= 1
    2       1.625000000000        1.000000000000
 32 C     2 shells
 l=0 nsto= 1
    2       1.625000000000        1.000000000000
 l=1 nsto= 1
    2       1.625000000000        1.000000000000
 33 C     2 shells
 l=0 nsto= 1
    2       1.625000000000        1.000000000000
 l=1 nsto= 1
    2       1.625000000000        1.000000000000
 34 H     1 shells
 l=0 nsto= 1
    1       1.200000000000        1.000000000000
 35 H     1 shells
 l=0 nsto= 1
    1       1.200000000000        1.000000000000
 36 H     1 shells
 l=0 nsto= 1
    1       1.200000000000        1.000000000000
 37 H     1 shells
 l=0 nsto= 1
    1       1.200000000000        1.000000000000
 38 H     1 shells
 l=0 nsto= 1
    1       1.200000000000        1.000000000000
 39 H     1 shells
 l=0 nsto= 1
    1       1.200000000000        1.000000000000
 40 C     2 shells
 l=0 nsto= 1
    2       1.625000000000        1.000000000000
 l=1 nsto= 1
    2       1.625000000000        1.000000000000
 41 C     2 shells
 l=0 nsto= 1
    2       1.625000000000        1.000000000000
 l=1 nsto= 1
    2       1.625000000000        1.000000000000
 42 C     2 shells
 l=0 nsto= 1
    2       1.625000000000        1.000000000000
 l=1 nsto= 1
    2       1.625000000000        1.000000000000
 43 H     1 shells
 l=0 nsto= 1
    1       1.200000000000        1.000000000000
 44 H     1 shells
 l=0 nsto= 1
    1       1.200000000000        1.000000000000
 45 H     1 shells
 l=0 nsto= 1
    1       1.200000000000        1.000000000000
 46 H     1 shells
 l=0 nsto= 1
    1       1.200000000000        1.000000000000
 47 H     1 shells
 l=0 nsto= 1
    1       1.200000000000        1.000000000000
 48 H     1 shells
 l=0 nsto= 1
    1       1.200000000000        1.000000000000
 49 H     1 shells
 l=0 nsto= 1
    1       1.200000000000        1.000000000000
 50 H     1 shells
 l=0 nsto= 1
    1       1.200000000000        1.000000000000
 51 H     1 shells
 l=0 nsto= 1
    1       1.200000000000        1.000000000000
 52 H     1 shells
 l=0 nsto= 1
    1       1.200000000000        1.000000000000
 53 H     1 shells
 l=0 nsto= 1
    1       1.200000000000        1.000000000000
------------------------------------------------------------------------------
                           ORCA NDO INTEGRAL CALCULATION
------------------------------------------------------------------------------

--------------
NDO PARAMETERS
--------------

Gamma integral treatment              ... Mataga-Nishimoto
Nuclear repulsuion treatment          ... Direct (ZA*ZB/RAB)
Interaction factors:
s-s (sigma) =    1.0000
s-p (sigma) =    1.0000
s-d (sigma) =    1.0000
p-p (sigma) =    1.2670  p-p(pi) =    0.5850
p-d (sigma) =    1.0000  p-d(pi) =    1.0000
d-d (sigma) =    1.0000  d-d(pi) =    1.0000 d-d (delta) =    1.0000

fGamma parameter for Mataga-Nishimoto gamma integrals:    1.2000

--------------------------
Parameters for Element H :
--------------------------
 One-electron parameters (in eV)
  U(s)  =   -13.060000 Beta(s) =    12.000000 Neff(s) =     1.000000
 One-center electron repulsion parameters (in eV)
  G(s,s)=    12.850000
--------------------------
Parameters for Element C :
--------------------------
 One-electron parameters (in eV)
  U(s)  =   -50.870766 Beta(s) =    17.000000 Neff(s) =     2.000000
  U(p)  =   -41.599980 Beta(p) =    17.000000 Neff(p) =     2.000000 
 One-center electron repulsion parameters (in eV)
  G(s,s)=    11.110000
  G(s,p)=    11.110000 G(p,p)  =    11.110000
 Slater-Condon parameters (in eV)
 F2(p,p)=     4.5098 G1(s,p)=    6.8977
--------------------------
Parameters for Element S :
--------------------------
 One-electron parameters (in eV)
  U(s)  =   -69.509597 Beta(s) =    15.000000 Neff(s) =     2.000000
  U(p)  =   -60.725746 Beta(p) =    15.000000 Neff(p) =     4.000000 
 One-center electron repulsion parameters (in eV)
  G(s,s)=    10.090000
  G(s,p)=    10.090000 G(p,p)  =    10.090000
 Slater-Condon parameters (in eV)
 F2(p,p)=     4.5377 G1(s,p)=    3.0756

 Number of atoms                    ....   54
 Number of basis functions          ....  120

 Overlap integrals                  .... done
 One electron matrix                .... done
 Nuclear repulsion                  .... done
 Integral list                      .... done
 Electron-electron repulsion        .... done
-------------------------------------------------------------------------------
                                 ORCA SCF
-------------------------------------------------------------------------------

------------
SCF SETTINGS
------------
Hamiltonian:
 ZDO-Hamiltonian        Method          .... INDO


General Settings:
 Integral files         IntName         .... /Users/mattyjones/GoogleDrive/Boise/Code/MorphCT/tests/output_EZ/donor_polymer/chromophores/input_orca/pair/00004-00014
 Hartree-Fock type      HFTyp           .... RHF
 Total Charge           Charge          ....    0
 Multiplicity           Mult            ....    1
 Number of Electrons    NEL             ....  124
 Basis Dimension        Dim             ....  120
 Nuclear Repulsion      ENuc            ....    611.5090948113 Eh

Convergence Acceleration:
 DIIS                   CNVDIIS         .... on
   Start iteration      DIISMaxIt       ....    12
   Startup error        DIISStart       ....  0.200000
   # of expansion vecs  DIISMaxEq       ....     5
   Bias factor          DIISBfac        ....   1.050
   Max. coefficient     DIISMaxC        ....  10.000
 Newton-Raphson         CNVNR           .... off
 SOSCF                  CNVSOSCF        .... on
   Start iteration      SOSCFMaxIt      ....   150
   Startup grad/error   SOSCFStart      ....  0.003300
 Level Shifting         CNVShift        .... on
   Level shift para.    LevelShift      ....    0.2500
   Turn off err/grad.   ShiftErr        ....    0.0010
 Zerner damping         CNVZerner       .... off
 Static damping         CNVDamp         .... on
   Fraction old density DampFac         ....    0.7000
   Max. Damping (<1)    DampMax         ....    0.9800
   Min. Damping (>=0)   DampMin         ....    0.0000
   Turn off err/grad.   DampErr         ....    0.1000
 Fernandez-Rico         CNVRico         .... off

SCF Procedure:
 Maximum # iterations   MaxIter         ....   125
 SCF integral mode      SCFMode         .... Conventional
 Integral Buffer length BufferLength    .... 1048576
 Integral index format  IndFormat       ....     0
 Integral value format  ValFormat       ....     0
 Integral Storage       Thresh          ....  1.000e-08 Eh

Convergence Tolerance:
 Convergence Check Mode ConvCheckMode   .... Total+1el-Energy
 Energy Change          TolE            ....  1.000e-06 Eh
 1-El. energy change                    ....  1.000e-03 Eh
 Orbital Gradient       TolG            ....  5.000e-05
 Orbital Rotation angle TolX            ....  5.000e-05
 DIIS Error             TolErr          ....  1.000e-06


Diagonalization of the overlap matrix:
Smallest eigenvalue                        ... 1.698e-01
Time for diagonalization                   ...    0.003 sec
Threshold for overlap eigenvalues          ... 1.000e-08
Number of eigenvalues below threshold      ... 0
Time for construction of square roots      ...    0.001 sec
Total time needed                          ...    0.005 sec

-------------------------------
INITIAL GUESS: EXTENDED HUECKEL
-------------------------------
EHT matrix was read from disk
EHT matrix was diagonalized
Initial density was built
                      ------------------
                      INITIAL GUESS DONE
                      ------------------

 InCore treatment chosen:
   Memory dedicated               ...    1024 MB
   Memory needed                  ...      0 MB
   Number of tiny    integrals    ...       0
   Number of small   integrals    ...       0
   Number of regular integrals    ...    7392

--------------
SCF ITERATIONS
--------------
ITER       Energy         Delta-E        Max-DP      RMS-DP      [F,P]     Damp
  0    -22.5602901209   0.000000000000 0.04185257  0.00144782  0.1149886 0.7000
  1    -22.6019894242  -0.041699303343 0.03986393  0.00136292  0.0784689 0.7000
                               ***Turning on DIIS***
  2    -22.6328648001  -0.030875375855 0.10218365  0.00349689  0.0485604 0.0000
  3    -22.7137007109  -0.080835910765 0.02115082  0.00072686  0.0219605 0.0000
  4    -22.6985471997   0.015153511175 0.01156865  0.00049516  0.0070013 0.0000
  5    -22.7155958664  -0.017048666713 0.00818180  0.00033439  0.0040583 0.0000
  6    -22.7182671873  -0.002671320925 0.00598206  0.00023678  0.0022099 0.0000
                      *** Initiating the SOSCF procedure ***
                           *** Shutting down DIIS ***
                      *** Re-Reading the Fockian *** 
                      *** Removing any level shift *** 
ITER      Energy       Delta-E        Grad      Rot      Max-DP    RMS-DP
  7    -22.71408380   0.0041833863  0.003005  0.003005  0.003563  0.000133
  8    -22.71212779   0.0019560077  0.000799  0.002193  0.001773  0.000062
  9    -22.71214210  -0.0000143106  0.000353  0.002139  0.001978  0.000065
 10    -22.71214732  -0.0000052174  0.000027  0.000059  0.000115  0.000004
                 **** Energy Check signals convergence ****
              ***Rediagonalizing the Fockian in SOSCF/NRSCF***

               *****************************************************
               *                     SUCCESS                       *
               *           SCF CONVERGED AFTER  11 CYCLES          *
               *****************************************************


----------------
TOTAL SCF ENERGY
----------------

Total Energy       :          -22.71214737 Eh            -618.02895 eV

Components:
Nuclear Repulsion  :          611.50909481 Eh           16640.00843 eV
Electronic Energy  :         -634.22124218 Eh          -17258.03738 eV

One Electron Energy:        -1178.14389683 Eh          -32058.92528 eV
Two Electron Energy:          543.92265465 Eh           14800.88790 eV


---------------
SCF CONVERGENCE
---------------

  Last Energy change         ...   -4.4416e-08  Tolerance :   1.0000e-06
  Last MAX-Density change    ...    3.7888e-05  Tolerance :   1.0000e-05
  Last RMS-Density change    ...    1.2409e-06  Tolerance :   1.0000e-06
  Last Orbital Gradient      ...    7.8592e-06  Tolerance :   5.0000e-05
  Last Orbital Rotation      ...    2.1155e-05  Tolerance :   5.0000e-05

             **** THE GBW FILE WAS UPDATED (/Users/mattyjones/GoogleDrive/Boise/Code/MorphCT/tests/output_EZ/donor_polymer/chromophores/input_orca/pair/00004-00014.gbw) ****
             **** DENSITY FILE WAS UPDATED (/Users/mattyjones/GoogleDrive/Boise/Code/MorphCT/tests/output_EZ/donor_polymer/chromophores/input_orca/pair/00004-00014.scfp.tmp) ****
             **** ENERGY FILE WAS UPDATED (/Users/mattyjones/GoogleDrive/Boise/Code/MorphCT/tests/output_EZ/donor_polymer/chromophores/input_orca/pair/00004-00014.en.tmp) ****
----------------
ORBITAL ENERGIES
----------------

  NO   OCC          E(Eh)            E(eV) 
   0   2.0000      -1.555531       -42.3281 
   1   2.0000      -1.555268       -42.3210 
   2   2.0000      -1.387225       -37.7483 
   3   2.0000      -1.382897       -37.6305 
   4   2.0000      -1.289426       -35.0871 
   5   2.0000      -1.283291       -34.9201 
   6   2.0000      -1.182303       -32.1721 
   7   2.0000      -1.181979       -32.1633 
   8   2.0000      -1.115700       -30.3597 
   9   2.0000      -1.112395       -30.2698 
  10   2.0000      -1.054270       -28.6882 
  11   2.0000      -1.042106       -28.3571 
  12   2.0000      -0.973709       -26.4960 
  13   2.0000      -0.947255       -25.7761 
  14   2.0000      -0.908183       -24.7129 
  15   2.0000      -0.890138       -24.2219 
  16   2.0000      -0.871565       -23.7165 
  17   2.0000      -0.844444       -22.9785 
  18   2.0000      -0.832329       -22.6488 
  19   2.0000      -0.820956       -22.3394 
  20   2.0000      -0.775477       -21.1018 
  21   2.0000      -0.768769       -20.9193 
  22   2.0000      -0.733740       -19.9661 
  23   2.0000      -0.727113       -19.7858 
  24   2.0000      -0.699499       -19.0343 
  25   2.0000      -0.682791       -18.5797 
  26   2.0000      -0.676600       -18.4112 
  27   2.0000      -0.668942       -18.2028 
  28   2.0000      -0.650382       -17.6978 
  29   2.0000      -0.629700       -17.1350 
  30   2.0000      -0.618607       -16.8332 
  31   2.0000      -0.610513       -16.6129 
  32   2.0000      -0.603948       -16.4343 
  33   2.0000      -0.591200       -16.0874 
  34   2.0000      -0.582700       -15.8561 
  35   2.0000      -0.578251       -15.7350 
  36   2.0000      -0.574730       -15.6392 
  37   2.0000      -0.562014       -15.2932 
  38   2.0000      -0.549699       -14.9581 
  39   2.0000      -0.548936       -14.9373 
  40   2.0000      -0.531875       -14.4731 
  41   2.0000      -0.531388       -14.4598 
  42   2.0000      -0.514610       -14.0033 
  43   2.0000      -0.512682       -13.9508 
  44   2.0000      -0.506881       -13.7929 
  45   2.0000      -0.504403       -13.7255 
  46   2.0000      -0.499935       -13.6039 
  47   2.0000      -0.496791       -13.5184 
  48   2.0000      -0.494463       -13.4550 
  49   2.0000      -0.487521       -13.2661 
  50   2.0000      -0.483246       -13.1498 
  51   2.0000      -0.475055       -12.9269 
  52   2.0000      -0.469753       -12.7826 
  53   2.0000      -0.461736       -12.5645 
  54   2.0000      -0.460529       -12.5316 
  55   2.0000      -0.452300       -12.3077 
  56   2.0000      -0.439582       -11.9616 
  57   2.0000      -0.437188       -11.8965 
  58   2.0000      -0.357697        -9.7334 
  59   2.0000      -0.356456        -9.6996 
  60   2.0000      -0.305600        -8.3158 
  61   2.0000      -0.305038        -8.3005 
  62   0.0000       0.007369         0.2005 
  63   0.0000       0.007448         0.2027 
  64   0.0000       0.055002         1.4967 
  65   0.0000       0.062749         1.7075 
  66   0.0000       0.074700         2.0327 
  67   0.0000       0.075164         2.0453 
  68   0.0000       0.083665         2.2766 
  69   0.0000       0.084502         2.2994 
  70   0.0000       0.099795         2.7156 
  71   0.0000       0.104018         2.8305 
  72   0.0000       0.106528         2.8988 
  73   0.0000       0.108246         2.9455 
  74   0.0000       0.122330         3.3288 
  75   0.0000       0.123893         3.3713 
  76   0.0000       0.141165         3.8413 
  77   0.0000       0.142897         3.8884 
  78   0.0000       0.155532         4.2322 
  79   0.0000       0.159651         4.3443 
  80   0.0000       0.166061         4.5187 
  81   0.0000       0.166192         4.5223 
  82   0.0000       0.172183         4.6853 
  83   0.0000       0.172584         4.6963 
  84   0.0000       0.203612         5.5406 
  85   0.0000       0.204963         5.5773 
  86   0.0000       0.225744         6.1428 
  87   0.0000       0.232009         6.3133 
  88   0.0000       0.233345         6.3496 
  89   0.0000       0.234405         6.3785 
  90   0.0000       0.236761         6.4426 
  91   0.0000       0.237016         6.4495 
  92   0.0000       0.237864         6.4726 
  93   0.0000       0.238552         6.4913 
  94   0.0000       0.239075         6.5056 
  95   0.0000       0.240344         6.5401 
  96   0.0000       0.240615         6.5475 
  97   0.0000       0.241158         6.5622 
  98   0.0000       0.241740         6.5781 
  99   0.0000       0.242804         6.6070 
 100   0.0000       0.244455         6.6520 
 101   0.0000       0.245602         6.6832 
 102   0.0000       0.253970         6.9109 
 103   0.0000       0.258005         7.0207 
 104   0.0000       0.265270         7.2184 
 105   0.0000       0.266413         7.2495 
 106   0.0000       0.270629         7.3642 
 107   0.0000       0.274115         7.4590 
 108   0.0000       0.302186         8.2229 
 109   0.0000       0.306042         8.3278 
 110   0.0000       0.309710         8.4276 
 111   0.0000       0.309951         8.4342 
 112   0.0000       0.341271         9.2865 
 113   0.0000       0.343908         9.3582 
 114   0.0000       0.356904         9.7118 
 115   0.0000       0.365020         9.9327 
 116   0.0000       0.409661        11.1474 
 117   0.0000       0.414175        11.2703 
 118   0.0000       0.427849        11.6424 
 119   0.0000       0.431051        11.7295 
-------
TIMINGS
-------

Total SCF time: 0 days 0 hours 0 min 0 sec 

Total time                  ....       0.122 sec
Sum of individual times     ....       0.099 sec  ( 81.0%)

Fock matrix formation       ....       0.047 sec  ( 39.0%)
Diagonalization             ....       0.024 sec  ( 19.6%)
Density matrix formation    ....       0.005 sec  (  4.1%)
Population analysis         ....       0.000 sec  (  0.0%)
Initial guess               ....       0.003 sec  (  2.5%)
Orbital Transformation      ....       0.000 sec  (  0.0%)
Orbital Orthonormalization  ....       0.000 sec  (  0.0%)
DIIS solution               ....       0.013 sec  ( 10.3%)
SOSCF solution              ....       0.007 sec  (  5.5%)

-------------------------   --------------------
FINAL SINGLE POINT ENERGY       -22.712147365816
-------------------------   --------------------


                            ***************************************
                            *     ORCA property calculations      *
                            ***************************************

                                    ---------------------
                                    Active property flags
                                    ---------------------
   (+) Dipole Moment


------------------------------------------------------------------------------
                       ORCA ELECTRIC PROPERTIES CALCULATION
------------------------------------------------------------------------------

Dipole Moment Calculation                       ... on
Quadrupole Moment Calculation                   ... off
Polarizability Calculation                      ... off
GBWName                                         ... /Users/mattyjones/GoogleDrive/Boise/Code/MorphCT/tests/output_EZ/donor_polymer/chromophores/input_orca/pair/00004-00014.gbw
Electron density file                           ... /Users/mattyjones/GoogleDrive/Boise/Code/MorphCT/tests/output_EZ/donor_polymer/chromophores/input_orca/pair/00004-00014.scfp.tmp

-------------
DIPOLE MOMENT
-------------
                                X             Y             Z
Electronic contribution:    185.59600     195.41667      -6.59321
Nuclear contribution   :   -100.75686    -104.81881       5.89576
                        -----------------------------------------
Total Dipole Moment    :     84.83914      90.59787      -0.69744
                        -----------------------------------------
Magnitude (a.u.)       :    124.12147
Magnitude (Debye)      :    315.49170


Timings for individual modules:

Sum of individual times         ...        0.221 sec (=   0.004 min)
STO integral calculation        ...        0.054 sec (=   0.001 min)  24.5 %
SCF iterations                  ...        0.167 sec (=   0.003 min)  75.5 %
                             ****ORCA TERMINATED NORMALLY****
TOTAL RUN TIME: 0 days 0 hours 0 minutes 0 seconds 521 msec

