
                                 *****************
                                 * O   R   C   A *
                                 *****************

           --- An Ab Initio, DFT and Semiempirical electronic structure package ---

                  #######################################################
                  #                        -***-                        #
                  #  Department of molecular theory and spectroscopy    #
                  #              Directorship: Frank Neese              #
                  # Max Planck Institute for Chemical Energy Conversion #
                  #                  D-45470 Muelheim/Ruhr              #
                  #                       Germany                       #
                  #                                                     #
                  #                  All rights reserved                #
                  #                        -***-                        #
                  #######################################################


                         Program Version 3.0.3 - RELEASE   -


 With contributions from (in alphabetic order):
   Ute Becker             : Parallelization
   Dmytro Bykov           : SCF Hessian
   Dmitry Ganyushin       : Spin-Orbit,Spin-Spin,Magnetic field MRCI
   Andreas Hansen         : Spin unrestricted coupled pair/coupled cluster methods
   Dimitrios Liakos       : Extrapolation schemes; parallel MDCI
   Robert Izsak           : Overlap fitted RIJCOSX, COSX-SCS-MP3
   Christian Kollmar      : KDIIS, OOCD, Brueckner-CCSD(T), CCSD density
   Simone Kossmann        : Meta GGA functionals, TD-DFT gradient, OOMP2, MP2 Hessian
   Taras Petrenko         : DFT Hessian,TD-DFT gradient, ASA and ECA modules, normal mode analysis, Resonance Raman, ABS, FL, XAS/XES, NRVS
   Christoph Reimann      : Effective Core Potentials
   Michael Roemelt        : Restricted open shell CIS
   Christoph Riplinger    : Improved optimizer, TS searches, QM/MM, DLPNO-CCSD
   Barbara Sandhoefer     : DKH picture change effects
   Igor Schapiro          : Molecular dynamics
   Kantharuban Sivalingam : CASSCF convergence, NEVPT2
   Boris Wezisla          : Elementary symmetry handling
   Frank Wennmohs         : Technical directorship


 We gratefully acknowledge several colleagues who have allowed us to
 interface, adapt or use parts of their codes:
   Stefan Grimme, W. Hujo, H. Kruse, T. Risthaus : VdW corrections, initial TS optimization,
                                                   DFT functionals, gCP
   Ed Valeev                                     : LibInt (2-el integral package), F12 methods
   Garnet Chan, S. Sharma, R. Olivares           : DMRG
   Ulf Ekstrom                                   : XCFun DFT Library
   Mihaly Kallay                                 : mrcc  (arbitrary order and MRCC methods)
   Andreas Klamt, Michael Diedenhofen            : otool_cosmo (COSMO solvation model)
   Frank Weinhold                                : gennbo (NPA and NBO analysis)
   Christopher J. Cramer and Donald G. Truhlar   : smd solvation model


 Your calculation uses the libint2 library for the computation of 2-el integrals
 For citations please refer to: http://libint.valeyev.net

 This ORCA versions uses:
   CBLAS   interface :  Fast vector & matrix operations
   LAPACKE interface :  Fast linear algebra routines
   SCALAPACK package :  Parallel linear algebra routines


leaving
================================================================================
                                        WARNINGS
                       Please study these warnings very carefully!
================================================================================
Now building the actual basis set

WARNING: Direct SCF is incompatible with Method<>HF and Method<>DFT
  ===> : conventional SCF is chosen

WARNING: The NDO methods need Guess=HUECKEL or Guess=HCORE or Guess=MOREAD
  ===> : Guess is set to Hueckel

WARNING: The NDO methods need %rel::SOCType==1
  ===> : %rel::SOCType is set to 1

WARNING: The NDO methods cannot have frozencore=1
  ===> : %method FrozenCore=0 end


INFO   : the flag for use of LIBINT has been found!

================================================================================
                                       INPUT FILE
================================================================================
NAME = /Users/mattyjones/GoogleDrive/Boise/Code/MorphCT/tests/output_EZ/donor_polymer/chromophores/input_orca/pair/00006-00019.inp
|  1> # ================================================================
|  2> # Orca input file made by Matty Jones
|  3> # ================================================================
|  4> ! ZINDO/S 
|  5> ! NOPOP
|  6> ! NOMOPRINT
|  7> * xyz 0   1
|  8>  C  -22.15566  7.19808  -0.22756
|  9>  C  -22.75789  5.94191  -0.31273
| 10>  C  -22.22108  4.97445  0.59288
| 11>  C  -21.18975  5.46919  1.39720
| 12>  S  -20.99903  7.05528  0.95181
| 13>  H  -23.59944  5.68272  -1.04014
| 14>  C  -22.83539  3.47206  0.58530
| 15>  C  -23.18792  2.60569  2.01217
| 16>  C  -23.84211  1.04029  1.83604
| 17>  H  -23.38743  0.61788  0.85748
| 18>  H  -23.41652  0.42291  2.72178
| 19>  H  -22.20566  2.45010  2.58643
| 20>  H  -23.92137  3.23264  2.63573
| 21>  H  -22.09276  2.78103  -0.00076
| 22>  H  -23.84192  3.48125  -0.00592
| 23>  C  -25.45567  0.78985  1.79299
| 24>  C  -26.20751  0.65276  0.28188
| 25>  C  -26.87261  2.06276  -0.34412
| 26>  H  -27.82562  1.79564  -0.94599
| 27>  H  -26.10536  2.57495  -1.04198
| 28>  H  -27.15262  2.77903  0.52027
| 29>  H  -25.42190  0.26653  -0.46862
| 30>  H  -27.05267  -0.12679  0.38063
| 31>  H  -25.69150  -0.19189  2.36267
| 32>  H  -25.97778  1.66193  2.34847
| 33>  C  28.66072  -1.89813  -2.50178
| 34>  C  27.62950  -2.73576  -2.07416
| 35>  C  26.55324  -2.05289  -1.42638
| 36>  C  26.73555  -0.66906  -1.34206
| 37>  S  28.19818  -0.36749  -2.06329
| 38>  H  27.64610  -3.86574  -2.23607
| 39>  C  25.37822  -3.05244  -0.94692
| 40>  C  23.75786  -2.87398  -1.37209
| 41>  C  22.70726  -2.03006  -0.38323
| 42>  H  23.28510  -1.17583  0.12965
| 43>  H  21.86377  -1.58353  -1.03428
| 44>  H  23.74968  -2.34386  -2.40213
| 45>  H  23.33072  -3.93921  -1.51162
| 46>  H  25.37474  -3.05153  0.22524
| 47>  H  25.64394  -4.14601  -1.27069
| 48>  C  22.07829  -3.02242  0.75121
| 49>  C  20.74079  -3.96149  0.30568
| 50>  C  21.09268  -5.52793  -0.20984
| 51>  H  21.82815  -6.01898  0.53669
| 52>  H  21.56635  -5.49581  -1.26373
| 53>  H  20.11205  -6.14226  -0.24488
| 54>  H  20.19420  -3.42169  -0.55311
| 55>  H  20.04269  -4.03742  1.21931
| 56>  H  22.90231  -3.75630  1.10487
| 57>  H  21.74921  -2.38096  1.65732
| 58>  H  -22.38859  8.06138  -0.79682
| 59>  H  -20.64410  4.94105  2.13675
| 60>  H  29.55174  -2.18089  -3.00151
| 61>  H  26.07681  0.03895  -0.90803
| 62> *
| 63> 
| 64>                          ****END OF INPUT****
================================================================================

                       ****************************
                       * Single Point Calculation *
                       ****************************

---------------------------------
CARTESIAN COORDINATES (ANGSTROEM)
---------------------------------
  C    -22.155660    7.198080   -0.227560
  C    -22.757890    5.941910   -0.312730
  C    -22.221080    4.974450    0.592880
  C    -21.189750    5.469190    1.397200
  S    -20.999030    7.055280    0.951810
  H    -23.599440    5.682720   -1.040140
  C    -22.835390    3.472060    0.585300
  C    -23.187920    2.605690    2.012170
  C    -23.842110    1.040290    1.836040
  H    -23.387430    0.617880    0.857480
  H    -23.416520    0.422910    2.721780
  H    -22.205660    2.450100    2.586430
  H    -23.921370    3.232640    2.635730
  H    -22.092760    2.781030   -0.000760
  H    -23.841920    3.481250   -0.005920
  C    -25.455670    0.789850    1.792990
  C    -26.207510    0.652760    0.281880
  C    -26.872610    2.062760   -0.344120
  H    -27.825620    1.795640   -0.945990
  H    -26.105360    2.574950   -1.041980
  H    -27.152620    2.779030    0.520270
  H    -25.421900    0.266530   -0.468620
  H    -27.052670   -0.126790    0.380630
  H    -25.691500   -0.191890    2.362670
  H    -25.977780    1.661930    2.348470
  C     28.660720   -1.898130   -2.501780
  C     27.629500   -2.735760   -2.074160
  C     26.553240   -2.052890   -1.426380
  C     26.735550   -0.669060   -1.342060
  S     28.198180   -0.367490   -2.063290
  H     27.646100   -3.865740   -2.236070
  C     25.378220   -3.052440   -0.946920
  C     23.757860   -2.873980   -1.372090
  C     22.707260   -2.030060   -0.383230
  H     23.285100   -1.175830    0.129650
  H     21.863770   -1.583530   -1.034280
  H     23.749680   -2.343860   -2.402130
  H     23.330720   -3.939210   -1.511620
  H     25.374740   -3.051530    0.225240
  H     25.643940   -4.146010   -1.270690
  C     22.078290   -3.022420    0.751210
  C     20.740790   -3.961490    0.305680
  C     21.092680   -5.527930   -0.209840
  H     21.828150   -6.018980    0.536690
  H     21.566350   -5.495810   -1.263730
  H     20.112050   -6.142260   -0.244880
  H     20.194200   -3.421690   -0.553110
  H     20.042690   -4.037420    1.219310
  H     22.902310   -3.756300    1.104870
  H     21.749210   -2.380960    1.657320
  H    -22.388590    8.061380   -0.796820
  H    -20.644100    4.941050    2.136750
  H     29.551740   -2.180890   -3.001510
  H     26.076810    0.038950   -0.908030

----------------------------
CARTESIAN COORDINATES (A.U.)
----------------------------
  NO LB      ZA    FRAG    MASS        X           Y           Z
   0 C     4.0000    0    12.011        -41.868129716273721         13.602399890055883         -0.430026079035120
   1 C     4.0000    0    12.011        -43.006179485905115         11.228582612408024         -0.590974053861193
   2 C     4.0000    0    12.011        -41.991755599954850          9.400348166884571          1.120380830279232
   3 C     4.0000    0    12.011        -40.042824346257845         10.335271274380771          2.640325354314773
   4 S     6.0000    0    32.060        -39.682415777996383         13.332546998131928          1.798660231527587
   5 H     1.0000    0     1.008        -44.596478513906547         10.738784495756974         -1.965579740936851
   6 C     4.0000    0    12.011        -43.152633261284009          6.561242520542621          1.106056706184109
   7 C     4.0000    0    12.011        -43.818818415275267          4.924040489897267          3.802450234892325
   8 C     4.0000    0    12.011        -45.055058354825213          1.965863199856939          3.469612770924775
   9 H     1.0000    0     1.008        -44.195837676253895          1.167623983627263          1.620402365314795
  10 H     1.0000    0     1.008        -44.250809809489667          0.799184079296637          5.143418796784184
  11 H     1.0000    0     1.008        -41.962616022969783          4.630018000720459          4.887644364557943
  12 H     1.0000    0     1.008        -45.204838048199811          6.108804289559195          4.980807862960261
  13 H     1.0000    0     1.008        -41.749265942450066          5.255385070219019         -0.001436191861780
  14 H     1.0000    0     1.008        -45.054699306859767          6.578609103713358         -0.011187178712814
  15 C     4.0000    0    12.011        -48.104244855475194          1.492600186877701          3.388260060859465
  16 C     4.0000    0    12.011        -49.525016552002540          1.233537631178436          0.532676002629722
  17 C     4.0000    0    12.011        -50.781873403673572          3.898051480007401         -0.650292557204981
  18 H     1.0000    0     1.008        -52.582801306561862          3.393267835114356         -1.787662025428165
  19 H     1.0000    0     1.008        -49.331981027422486          4.865950308540526         -1.969056837023266
  20 H     1.0000    0     1.008        -51.311015618432855          5.251605617951176          0.983167815695210
  21 H     1.0000    0     1.008        -48.040428803932670          0.503668706474031         -0.885563460878177
  22 H     1.0000    0     1.008        -51.122137491347424         -0.239598376519876          0.719286458354446
  23 H     1.0000    0     1.008        -48.549898969637837         -0.362619547838149          4.464799244831724
  24 H     1.0000    0     1.008        -49.090889767256812          3.140592553747746          4.437965133730041
  25 C     4.0000    0    12.011         54.160911600999498         -3.586945866579946         -4.727679047321510
  26 C     4.0000    0    12.011         52.212188217177221         -5.169837168136404         -3.919594357934103
  27 C     4.0000    0    12.011         50.178351568283134         -3.879399883065599         -2.695467562902595
  28 C     4.0000    0    12.011         50.522867539758323         -1.264340167161353         -2.536125855290355
  29 S     6.0000    0    32.060         53.286837675015562         -0.694455456954721         -3.899053034858379
  30 H     1.0000    0     1.008         52.243557671000318         -7.305189904944740         -4.225559916277293
  31 C     4.0000    0    12.011         47.957885566402986         -5.768275640226585         -1.789419470732712
  32 C     4.0000    0    12.011         44.895848928042348         -5.431035114366999         -2.592874331092010
  33 C     4.0000    0    12.011         42.910502651744686         -3.836257435428176         -0.724199746302641
  34 H     1.0000    0     1.008         44.002462000969736         -2.221996680048625          0.245002993262890
  35 H     1.0000    0     1.008         41.316537555043439         -2.992438024848320         -1.954505945792072
  36 H     1.0000    0     1.008         44.880390968266873         -4.429253496252665         -4.539367838076257
  37 H     1.0000    0     1.008         44.088671307199220         -7.444028084003934         -2.856547818558042
  38 H     1.0000    0     1.008         47.951309319456939         -5.766555989444718          0.425641914404423
  39 H     1.0000    0     1.008         48.460023594708545         -7.834823448498850         -2.401256101112395
  40 C     4.0000    0    12.011         41.721921605292231         -5.711546061686270          1.419581169062984
  41 C     4.0000    0    12.011         39.194412901172555         -7.486131182267699          0.577651484617048
  42 C     4.0000    0    12.011         39.859388630438112        -10.446273787487304         -0.396540131942035
  43 H     1.0000    0     1.008         41.249225510153174        -11.374223805549335          1.014197118814196
  44 H     1.0000    0     1.008         40.754495208292589        -10.385575784065754         -2.388103607220303
  45 H     1.0000    0     1.008         38.006266491730912        -11.607189243339148         -0.462756135674636
  46 H     1.0000    0     1.008         38.161507493632534         -6.466057015177007         -1.045226421933183
  47 H     1.0000    0     1.008         37.875195087082133         -7.629618087616340          2.304161972351521
  48 H     1.0000    0     1.008         43.279093734166018         -7.098378276848398          2.087901713585573
  49 H     1.0000    0     1.008         41.100050529141427         -4.499362335821143          3.131880916270369
  50 H     1.0000    0     1.008        -42.308303624647998         15.233800461470100         -1.505771578031132
  51 H     1.0000    0     1.008        -39.011695281283714          9.337231314011600          4.037872316656235
  52 H     1.0000    0     1.008         55.844695380846005         -4.121284828207519         -5.672031888225976
  53 H     1.0000    0     1.008         49.278029346299029          0.073604832916233         -1.715928021384514

--------------------------------
INTERNAL COORDINATES (ANGSTROEM)
--------------------------------
 C      0   0   0   0.000000     0.000     0.000
 C      1   0   0   1.395671     0.000     0.000
 C      2   1   0   1.429781   114.102     0.000
 C      3   2   1   1.398335   113.693     0.000
 S      1   2   3   1.658041   105.480     0.000
 H      2   1   3   1.142152   124.128   180.570
 C      3   2   1   1.623148   118.767   180.238
 C      7   3   2   1.706116   122.978   223.456
 C      8   7   3   1.705715   117.317   179.513
 H      9   8   7   1.158768   105.739    31.811
 H      9   8   7   1.160526   105.591   145.982
 H      8   7   3   1.148398   108.076   297.605
 H      8   7   3   1.148844   107.983    57.042
 H      7   3   2   1.171532   107.963   101.893
 H      7   3   2   1.167359   108.748   345.745
 C      9   8   7   1.633447   121.486   268.469
 C     16   9   8   1.693373   118.328    96.801
 C     17  16   9   1.679980   116.126   265.408
 H     18  17  16   1.158373   109.013   213.949
 H     18  17  16   1.156728   109.502    94.135
 H     18  17  16   1.156987   109.695   333.694
 H     17  16   9   1.153086   107.784    26.604
 H     17  16   9   1.154013   107.667   144.257
 H     16   9   8   1.159295   108.532   217.849
 H     16   9   8   1.158309   108.493   335.051
 C      4   3   2  50.542545   129.161   256.453
 C     26   4   3   1.395671    48.325   286.158
 C     27  26   4   1.429778   114.102   327.571
 C     28  27  26   1.398332   113.693     0.000
 S     26   4   3   1.658034    64.525   141.080
 H     27  26   4   1.141641   122.672   147.200
 C     28  27  26   1.615442   112.735   179.934
 C     32  28  27   1.684691   123.997   234.489
 C     33  32  28   1.671468   120.579   267.115
 H     34  33  32   1.151805   108.818    33.387
 H     34  33  32   1.155305   108.703   152.337
 H     33  32  28   1.158480   106.240    28.690
 H     33  32  28   1.156128   106.751   143.950
 H     32  28  27   1.172166   107.366   112.743
 H     32  28  27   1.171038   109.312   358.029
 C     34  33  32   1.633198   110.256   273.221
 C     41  34  33   1.693888   117.274   276.740
 C     42  41  34   1.686215   115.508    95.321
 H     43  42  41   1.157304   109.243    47.272
 H     43  42  41   1.155889   109.783   286.761
 H     43  42  41   1.157698   108.992   166.796
 H     42  41  34   1.152243   108.112   334.445
 H     42  41  34   1.152315   107.839   216.092
 H     41  34  33   1.158734   108.842    38.172
 H     41  34  33   1.157929   108.445   155.799
 H      1   2   3   1.060000   127.260   180.000
 H      4   3   2   1.060000   127.206   180.000
 H     26   4   3   1.060000   154.733    16.902
 H     29  28  27   1.059999   127.205   180.001

---------------------------
INTERNAL COORDINATES (A.U.)
---------------------------
 C      0   0   0   0.000000     0.000     0.000
 C      1   0   0   2.637436     0.000     0.000
 C      2   1   0   2.701894   114.102     0.000
 C      3   2   1   2.642470   113.693     0.000
 S      1   2   3   3.133243   105.480     0.000
 H      2   1   3   2.158354   124.128   180.570
 C      3   2   1   3.067305   118.767   180.238
 C      7   3   2   3.224092   122.978   223.456
 C      8   7   3   3.223334   117.317   179.513
 H      9   8   7   2.189755   105.739    31.811
 H      9   8   7   2.193076   105.591   145.982
 H      8   7   3   2.170157   108.076   297.605
 H      8   7   3   2.171000   107.983    57.042
 H      7   3   2   2.213875   107.963   101.893
 H      7   3   2   2.205990   108.748   345.745
 C      9   8   7   3.086768   121.486   268.469
 C     16   9   8   3.200010   118.328    96.801
 C     17  16   9   3.174703   116.126   265.408
 H     18  17  16   2.189008   109.013   213.949
 H     18  17  16   2.185899   109.502    94.135
 H     18  17  16   2.186388   109.695   333.694
 H     17  16   9   2.179016   107.784    26.604
 H     17  16   9   2.180768   107.667   144.257
 H     16   9   8   2.190750   108.532   217.849
 H     16   9   8   2.188887   108.493   335.051
 C      4   3   2  95.511567   129.161   256.453
 C     26   4   3   2.637436    48.325   286.158
 C     27  26   4   2.701889   114.102   327.571
 C     28  27  26   2.642464   113.693     0.000
 S     26   4   3   3.133229    64.525   141.080
 H     27  26   4   2.157390   122.672   147.200
 C     28  27  26   3.052744   112.735   179.934
 C     32  28  27   3.183605   123.997   234.489
 C     33  32  28   3.158617   120.579   267.115
 H     34  33  32   2.176595   108.818    33.387
 H     34  33  32   2.183211   108.703   152.337
 H     33  32  28   2.189210   106.240    28.690
 H     33  32  28   2.184765   106.751   143.950
 H     32  28  27   2.215072   107.366   112.743
 H     32  28  27   2.212941   109.312   358.029
 C     34  33  32   3.086297   110.256   273.221
 C     41  34  33   3.200984   117.274   276.740
 C     42  41  34   3.186485   115.508    95.321
 H     43  42  41   2.186988   109.243    47.272
 H     43  42  41   2.184313   109.783   286.761
 H     43  42  41   2.187732   108.992   166.796
 H     42  41  34   2.177425   108.112   334.445
 H     42  41  34   2.177559   107.839   216.092
 H     41  34  33   2.189690   108.842    38.172
 H     41  34  33   2.188169   108.445   155.799
 H      1   2   3   2.003110   127.260   180.000
 H      4   3   2   2.003110   127.206   180.000
 H     26   4   3   2.003110   154.733    16.902
 H     29  28  27   2.003108   127.205   180.001

----------------------------
SLATER BASIS SET DIM= 120
----------------------------
  0 C     2 shells
 l=0 nsto= 1
    2       1.625000000000        1.000000000000
 l=1 nsto= 1
    2       1.625000000000        1.000000000000
  1 C     2 shells
 l=0 nsto= 1
    2       1.625000000000        1.000000000000
 l=1 nsto= 1
    2       1.625000000000        1.000000000000
  2 C     2 shells
 l=0 nsto= 1
    2       1.625000000000        1.000000000000
 l=1 nsto= 1
    2       1.625000000000        1.000000000000
  3 C     2 shells
 l=0 nsto= 1
    2       1.625000000000        1.000000000000
 l=1 nsto= 1
    2       1.625000000000        1.000000000000
  4 S     2 shells
 l=0 nsto= 1
    3       1.925000000000        1.000000000000
 l=1 nsto= 1
    3       1.925000000000        1.000000000000
  5 H     1 shells
 l=0 nsto= 1
    1       1.200000000000        1.000000000000
  6 C     2 shells
 l=0 nsto= 1
    2       1.625000000000        1.000000000000
 l=1 nsto= 1
    2       1.625000000000        1.000000000000
  7 C     2 shells
 l=0 nsto= 1
    2       1.625000000000        1.000000000000
 l=1 nsto= 1
    2       1.625000000000        1.000000000000
  8 C     2 shells
 l=0 nsto= 1
    2       1.625000000000        1.000000000000
 l=1 nsto= 1
    2       1.625000000000        1.000000000000
  9 H     1 shells
 l=0 nsto= 1
    1       1.200000000000        1.000000000000
 10 H     1 shells
 l=0 nsto= 1
    1       1.200000000000        1.000000000000
 11 H     1 shells
 l=0 nsto= 1
    1       1.200000000000        1.000000000000
 12 H     1 shells
 l=0 nsto= 1
    1       1.200000000000        1.000000000000
 13 H     1 shells
 l=0 nsto= 1
    1       1.200000000000        1.000000000000
 14 H     1 shells
 l=0 nsto= 1
    1       1.200000000000        1.000000000000
 15 C     2 shells
 l=0 nsto= 1
    2       1.625000000000        1.000000000000
 l=1 nsto= 1
    2       1.625000000000        1.000000000000
 16 C     2 shells
 l=0 nsto= 1
    2       1.625000000000        1.000000000000
 l=1 nsto= 1
    2       1.625000000000        1.000000000000
 17 C     2 shells
 l=0 nsto= 1
    2       1.625000000000        1.000000000000
 l=1 nsto= 1
    2       1.625000000000        1.000000000000
 18 H     1 shells
 l=0 nsto= 1
    1       1.200000000000        1.000000000000
 19 H     1 shells
 l=0 nsto= 1
    1       1.200000000000        1.000000000000
 20 H     1 shells
 l=0 nsto= 1
    1       1.200000000000        1.000000000000
 21 H     1 shells
 l=0 nsto= 1
    1       1.200000000000        1.000000000000
 22 H     1 shells
 l=0 nsto= 1
    1       1.200000000000        1.000000000000
 23 H     1 shells
 l=0 nsto= 1
    1       1.200000000000        1.000000000000
 24 H     1 shells
 l=0 nsto= 1
    1       1.200000000000        1.000000000000
 25 C     2 shells
 l=0 nsto= 1
    2       1.625000000000        1.000000000000
 l=1 nsto= 1
    2       1.625000000000        1.000000000000
 26 C     2 shells
 l=0 nsto= 1
    2       1.625000000000        1.000000000000
 l=1 nsto= 1
    2       1.625000000000        1.000000000000
 27 C     2 shells
 l=0 nsto= 1
    2       1.625000000000        1.000000000000
 l=1 nsto= 1
    2       1.625000000000        1.000000000000
 28 C     2 shells
 l=0 nsto= 1
    2       1.625000000000        1.000000000000
 l=1 nsto= 1
    2       1.625000000000        1.000000000000
 29 S     2 shells
 l=0 nsto= 1
    3       1.925000000000        1.000000000000
 l=1 nsto= 1
    3       1.925000000000        1.000000000000
 30 H     1 shells
 l=0 nsto= 1
    1       1.200000000000        1.000000000000
 31 C     2 shells
 l=0 nsto= 1
    2       1.625000000000        1.000000000000
 l=1 nsto= 1
    2       1.625000000000        1.000000000000
 32 C     2 shells
 l=0 nsto= 1
    2       1.625000000000        1.000000000000
 l=1 nsto= 1
    2       1.625000000000        1.000000000000
 33 C     2 shells
 l=0 nsto= 1
    2       1.625000000000        1.000000000000
 l=1 nsto= 1
    2       1.625000000000        1.000000000000
 34 H     1 shells
 l=0 nsto= 1
    1       1.200000000000        1.000000000000
 35 H     1 shells
 l=0 nsto= 1
    1       1.200000000000        1.000000000000
 36 H     1 shells
 l=0 nsto= 1
    1       1.200000000000        1.000000000000
 37 H     1 shells
 l=0 nsto= 1
    1       1.200000000000        1.000000000000
 38 H     1 shells
 l=0 nsto= 1
    1       1.200000000000        1.000000000000
 39 H     1 shells
 l=0 nsto= 1
    1       1.200000000000        1.000000000000
 40 C     2 shells
 l=0 nsto= 1
    2       1.625000000000        1.000000000000
 l=1 nsto= 1
    2       1.625000000000        1.000000000000
 41 C     2 shells
 l=0 nsto= 1
    2       1.625000000000        1.000000000000
 l=1 nsto= 1
    2       1.625000000000        1.000000000000
 42 C     2 shells
 l=0 nsto= 1
    2       1.625000000000        1.000000000000
 l=1 nsto= 1
    2       1.625000000000        1.000000000000
 43 H     1 shells
 l=0 nsto= 1
    1       1.200000000000        1.000000000000
 44 H     1 shells
 l=0 nsto= 1
    1       1.200000000000        1.000000000000
 45 H     1 shells
 l=0 nsto= 1
    1       1.200000000000        1.000000000000
 46 H     1 shells
 l=0 nsto= 1
    1       1.200000000000        1.000000000000
 47 H     1 shells
 l=0 nsto= 1
    1       1.200000000000        1.000000000000
 48 H     1 shells
 l=0 nsto= 1
    1       1.200000000000        1.000000000000
 49 H     1 shells
 l=0 nsto= 1
    1       1.200000000000        1.000000000000
 50 H     1 shells
 l=0 nsto= 1
    1       1.200000000000        1.000000000000
 51 H     1 shells
 l=0 nsto= 1
    1       1.200000000000        1.000000000000
 52 H     1 shells
 l=0 nsto= 1
    1       1.200000000000        1.000000000000
 53 H     1 shells
 l=0 nsto= 1
    1       1.200000000000        1.000000000000
------------------------------------------------------------------------------
                           ORCA NDO INTEGRAL CALCULATION
------------------------------------------------------------------------------

--------------
NDO PARAMETERS
--------------

Gamma integral treatment              ... Mataga-Nishimoto
Nuclear repulsuion treatment          ... Direct (ZA*ZB/RAB)
Interaction factors:
s-s (sigma) =    1.0000
s-p (sigma) =    1.0000
s-d (sigma) =    1.0000
p-p (sigma) =    1.2670  p-p(pi) =    0.5850
p-d (sigma) =    1.0000  p-d(pi) =    1.0000
d-d (sigma) =    1.0000  d-d(pi) =    1.0000 d-d (delta) =    1.0000

fGamma parameter for Mataga-Nishimoto gamma integrals:    1.2000

--------------------------
Parameters for Element H :
--------------------------
 One-electron parameters (in eV)
  U(s)  =   -13.060000 Beta(s) =    12.000000 Neff(s) =     1.000000
 One-center electron repulsion parameters (in eV)
  G(s,s)=    12.850000
--------------------------
Parameters for Element C :
--------------------------
 One-electron parameters (in eV)
  U(s)  =   -50.870766 Beta(s) =    17.000000 Neff(s) =     2.000000
  U(p)  =   -41.599980 Beta(p) =    17.000000 Neff(p) =     2.000000 
 One-center electron repulsion parameters (in eV)
  G(s,s)=    11.110000
  G(s,p)=    11.110000 G(p,p)  =    11.110000
 Slater-Condon parameters (in eV)
 F2(p,p)=     4.5098 G1(s,p)=    6.8977
--------------------------
Parameters for Element S :
--------------------------
 One-electron parameters (in eV)
  U(s)  =   -69.509597 Beta(s) =    15.000000 Neff(s) =     2.000000
  U(p)  =   -60.725746 Beta(p) =    15.000000 Neff(p) =     4.000000 
 One-center electron repulsion parameters (in eV)
  G(s,s)=    10.090000
  G(s,p)=    10.090000 G(p,p)  =    10.090000
 Slater-Condon parameters (in eV)
 F2(p,p)=     4.5377 G1(s,p)=    3.0756

 Number of atoms                    ....   54
 Number of basis functions          ....  120

 Overlap integrals                  .... done
 One electron matrix                .... done
 Nuclear repulsion                  .... done
 Integral list                      .... done
 Electron-electron repulsion        .... done
-------------------------------------------------------------------------------
                                 ORCA SCF
-------------------------------------------------------------------------------

------------
SCF SETTINGS
------------
Hamiltonian:
 ZDO-Hamiltonian        Method          .... INDO


General Settings:
 Integral files         IntName         .... /Users/mattyjones/GoogleDrive/Boise/Code/MorphCT/tests/output_EZ/donor_polymer/chromophores/input_orca/pair/00006-00019
 Hartree-Fock type      HFTyp           .... RHF
 Total Charge           Charge          ....    0
 Multiplicity           Mult            ....    1
 Number of Electrons    NEL             ....  124
 Basis Dimension        Dim             ....  120
 Nuclear Repulsion      ENuc            ....    634.0392279447 Eh

Convergence Acceleration:
 DIIS                   CNVDIIS         .... on
   Start iteration      DIISMaxIt       ....    12
   Startup error        DIISStart       ....  0.200000
   # of expansion vecs  DIISMaxEq       ....     5
   Bias factor          DIISBfac        ....   1.050
   Max. coefficient     DIISMaxC        ....  10.000
 Newton-Raphson         CNVNR           .... off
 SOSCF                  CNVSOSCF        .... on
   Start iteration      SOSCFMaxIt      ....   150
   Startup grad/error   SOSCFStart      ....  0.003300
 Level Shifting         CNVShift        .... on
   Level shift para.    LevelShift      ....    0.2500
   Turn off err/grad.   ShiftErr        ....    0.0010
 Zerner damping         CNVZerner       .... off
 Static damping         CNVDamp         .... on
   Fraction old density DampFac         ....    0.7000
   Max. Damping (<1)    DampMax         ....    0.9800
   Min. Damping (>=0)   DampMin         ....    0.0000
   Turn off err/grad.   DampErr         ....    0.1000
 Fernandez-Rico         CNVRico         .... off

SCF Procedure:
 Maximum # iterations   MaxIter         ....   125
 SCF integral mode      SCFMode         .... Conventional
 Integral Buffer length BufferLength    .... 1048576
 Integral index format  IndFormat       ....     0
 Integral value format  ValFormat       ....     0
 Integral Storage       Thresh          ....  1.000e-08 Eh

Convergence Tolerance:
 Convergence Check Mode ConvCheckMode   .... Total+1el-Energy
 Energy Change          TolE            ....  1.000e-06 Eh
 1-El. energy change                    ....  1.000e-03 Eh
 Orbital Gradient       TolG            ....  5.000e-05
 Orbital Rotation angle TolX            ....  5.000e-05
 DIIS Error             TolErr          ....  1.000e-06


Diagonalization of the overlap matrix:
Smallest eigenvalue                        ... 1.697e-01
Time for diagonalization                   ...    0.003 sec
Threshold for overlap eigenvalues          ... 1.000e-08
Number of eigenvalues below threshold      ... 0
Time for construction of square roots      ...    0.001 sec
Total time needed                          ...    0.004 sec

-------------------------------
INITIAL GUESS: EXTENDED HUECKEL
-------------------------------
EHT matrix was read from disk
EHT matrix was diagonalized
Initial density was built
                      ------------------
                      INITIAL GUESS DONE
                      ------------------

 InCore treatment chosen:
   Memory dedicated               ...    1024 MB
   Memory needed                  ...      0 MB
   Number of tiny    integrals    ...       0
   Number of small   integrals    ...       0
   Number of regular integrals    ...    7392

--------------
SCF ITERATIONS
--------------
ITER       Energy         Delta-E        Max-DP      RMS-DP      [F,P]     Damp
  0    -19.6743979224   0.000000000000 0.04318643  0.00144947  0.1047508 0.7000
  1    -19.7162266144  -0.041828692007 0.04163960  0.00136482  0.0736362 0.7000
                               ***Turning on DIIS***
  2    -19.7471622017  -0.030935587260 0.10833387  0.00350146  0.0483352 0.0000
  3    -19.8293479262  -0.082185724485 0.01761546  0.00072579  0.0209641 0.0000
  4    -19.8131438237   0.016204102476 0.01340763  0.00049886  0.0073305 0.0000
  5    -19.8302696307  -0.017125807062 0.00940088  0.00033692  0.0043522 0.0000
  6    -19.8322308290  -0.001961198271 0.00698474  0.00023863  0.0025324 0.0000
                      *** Initiating the SOSCF procedure ***
                           *** Shutting down DIIS ***
                      *** Re-Reading the Fockian *** 
                      *** Removing any level shift *** 
ITER      Energy       Delta-E        Grad      Rot      Max-DP    RMS-DP
  7    -19.82830923   0.0039215960  0.003016  0.003016  0.004166  0.000134
  8    -19.82646153   0.0018477050  0.000800  0.002197  0.002068  0.000062
  9    -19.82647580  -0.0000142732  0.000351  0.002136  0.002307  0.000065
 10    -19.82648099  -0.0000051936  0.000030  0.000087  0.000148  0.000004
                 **** Energy Check signals convergence ****
              ***Rediagonalizing the Fockian in SOSCF/NRSCF***

               *****************************************************
               *                     SUCCESS                       *
               *           SCF CONVERGED AFTER  11 CYCLES          *
               *****************************************************


----------------
TOTAL SCF ENERGY
----------------

Total Energy       :          -19.82648104 Eh            -539.50598 eV

Components:
Nuclear Repulsion  :          634.03922794 Eh           17253.08452 eV
Electronic Energy  :         -653.86570899 Eh          -17792.59050 eV

One Electron Energy:        -1217.29108507 Eh          -33124.17443 eV
Two Electron Energy:          563.42537608 Eh           15331.58393 eV


---------------
SCF CONVERGENCE
---------------

  Last Energy change         ...   -4.9576e-08  Tolerance :   1.0000e-06
  Last MAX-Density change    ...    5.7500e-05  Tolerance :   1.0000e-05
  Last RMS-Density change    ...    1.4367e-06  Tolerance :   1.0000e-06
  Last Orbital Gradient      ...    1.2008e-05  Tolerance :   5.0000e-05
  Last Orbital Rotation      ...    2.3900e-05  Tolerance :   5.0000e-05

             **** THE GBW FILE WAS UPDATED (/Users/mattyjones/GoogleDrive/Boise/Code/MorphCT/tests/output_EZ/donor_polymer/chromophores/input_orca/pair/00006-00019.gbw) ****
             **** DENSITY FILE WAS UPDATED (/Users/mattyjones/GoogleDrive/Boise/Code/MorphCT/tests/output_EZ/donor_polymer/chromophores/input_orca/pair/00006-00019.scfp.tmp) ****
             **** ENERGY FILE WAS UPDATED (/Users/mattyjones/GoogleDrive/Boise/Code/MorphCT/tests/output_EZ/donor_polymer/chromophores/input_orca/pair/00006-00019.en.tmp) ****
----------------
ORBITAL ENERGIES
----------------

  NO   OCC          E(Eh)            E(eV) 
   0   2.0000      -1.558124       -42.3987 
   1   2.0000      -1.555770       -42.3347 
   2   2.0000      -1.412938       -38.4480 
   3   2.0000      -1.394548       -37.9476 
   4   2.0000      -1.283258       -34.9192 
   5   2.0000      -1.281381       -34.8681 
   6   2.0000      -1.182484       -32.1770 
   7   2.0000      -1.179166       -32.0867 
   8   2.0000      -1.115570       -30.3562 
   9   2.0000      -1.110319       -30.2133 
  10   2.0000      -1.060315       -28.8526 
  11   2.0000      -1.059833       -28.8395 
  12   2.0000      -0.956275       -26.0216 
  13   2.0000      -0.953562       -25.9477 
  14   2.0000      -0.894849       -24.3501 
  15   2.0000      -0.886519       -24.1234 
  16   2.0000      -0.857533       -23.3347 
  17   2.0000      -0.855080       -23.2679 
  18   2.0000      -0.838582       -22.8190 
  19   2.0000      -0.833089       -22.6695 
  20   2.0000      -0.788171       -21.4472 
  21   2.0000      -0.783880       -21.3305 
  22   2.0000      -0.724581       -19.7169 
  23   2.0000      -0.721194       -19.6247 
  24   2.0000      -0.709622       -19.3098 
  25   2.0000      -0.699928       -19.0460 
  26   2.0000      -0.674080       -18.3427 
  27   2.0000      -0.661973       -18.0132 
  28   2.0000      -0.645507       -17.5651 
  29   2.0000      -0.634481       -17.2651 
  30   2.0000      -0.619742       -16.8640 
  31   2.0000      -0.612540       -16.6681 
  32   2.0000      -0.593405       -16.1474 
  33   2.0000      -0.586765       -15.9667 
  34   2.0000      -0.576081       -15.6760 
  35   2.0000      -0.575024       -15.6472 
  36   2.0000      -0.573589       -15.6082 
  37   2.0000      -0.561852       -15.2888 
  38   2.0000      -0.557420       -15.1682 
  39   2.0000      -0.553464       -15.0605 
  40   2.0000      -0.534127       -14.5343 
  41   2.0000      -0.533632       -14.5209 
  42   2.0000      -0.522507       -14.2181 
  43   2.0000      -0.511969       -13.9314 
  44   2.0000      -0.509469       -13.8634 
  45   2.0000      -0.505698       -13.7608 
  46   2.0000      -0.495012       -13.4700 
  47   2.0000      -0.494640       -13.4598 
  48   2.0000      -0.488394       -13.2899 
  49   2.0000      -0.487194       -13.2572 
  50   2.0000      -0.479023       -13.0349 
  51   2.0000      -0.478761       -13.0278 
  52   2.0000      -0.469613       -12.7788 
  53   2.0000      -0.468546       -12.7498 
  54   2.0000      -0.462430       -12.5834 
  55   2.0000      -0.456875       -12.4322 
  56   2.0000      -0.438300       -11.9268 
  57   2.0000      -0.436897       -11.8886 
  58   2.0000      -0.357664        -9.7325 
  59   2.0000      -0.356707        -9.7065 
  60   2.0000      -0.305174        -8.3042 
  61   2.0000      -0.305040        -8.3006 
  62   0.0000       0.007279         0.1981 
  63   0.0000       0.007536         0.2051 
  64   0.0000       0.066005         1.7961 
  65   0.0000       0.069402         1.8885 
  66   0.0000       0.075235         2.0472 
  67   0.0000       0.077764         2.1161 
  68   0.0000       0.085490         2.3263 
  69   0.0000       0.085994         2.3400 
  70   0.0000       0.104312         2.8385 
  71   0.0000       0.104890         2.8542 
  72   0.0000       0.107328         2.9205 
  73   0.0000       0.108544         2.9536 
  74   0.0000       0.123329         3.3559 
  75   0.0000       0.125482         3.4145 
  76   0.0000       0.141674         3.8552 
  77   0.0000       0.142390         3.8746 
  78   0.0000       0.158862         4.3229 
  79   0.0000       0.160492         4.3672 
  80   0.0000       0.165868         4.5135 
  81   0.0000       0.166045         4.5183 
  82   0.0000       0.166674         4.5354 
  83   0.0000       0.168176         4.5763 
  84   0.0000       0.203574         5.5395 
  85   0.0000       0.203852         5.5471 
  86   0.0000       0.230784         6.2800 
  87   0.0000       0.231436         6.2977 
  88   0.0000       0.233683         6.3588 
  89   0.0000       0.233780         6.3615 
  90   0.0000       0.236474         6.4348 
  91   0.0000       0.236707         6.4411 
  92   0.0000       0.238275         6.4838 
  93   0.0000       0.239530         6.5179 
  94   0.0000       0.241028         6.5587 
  95   0.0000       0.242047         6.5864 
  96   0.0000       0.244167         6.6441 
  97   0.0000       0.245001         6.6668 
  98   0.0000       0.245029         6.6676 
  99   0.0000       0.245573         6.6824 
 100   0.0000       0.248198         6.7538 
 101   0.0000       0.250949         6.8287 
 102   0.0000       0.257666         7.0114 
 103   0.0000       0.259741         7.0679 
 104   0.0000       0.266373         7.2484 
 105   0.0000       0.267082         7.2677 
 106   0.0000       0.276845         7.5333 
 107   0.0000       0.284995         7.7551 
 108   0.0000       0.303280         8.2527 
 109   0.0000       0.307010         8.3542 
 110   0.0000       0.310087         8.4379 
 111   0.0000       0.311160         8.4671 
 112   0.0000       0.337494         9.1837 
 113   0.0000       0.342011         9.3066 
 114   0.0000       0.349873         9.5205 
 115   0.0000       0.354995         9.6599 
 116   0.0000       0.414377        11.2758 
 117   0.0000       0.420663        11.4468 
 118   0.0000       0.428745        11.6667 
 119   0.0000       0.428901        11.6710 
-------
TIMINGS
-------

Total SCF time: 0 days 0 hours 0 min 0 sec 

Total time                  ....       0.128 sec
Sum of individual times     ....       0.100 sec  ( 78.6%)

Fock matrix formation       ....       0.047 sec  ( 36.5%)
Diagonalization             ....       0.026 sec  ( 20.2%)
Density matrix formation    ....       0.005 sec  (  4.1%)
Population analysis         ....       0.000 sec  (  0.0%)
Initial guess               ....       0.003 sec  (  2.5%)
Orbital Transformation      ....       0.000 sec  (  0.0%)
Orbital Orthonormalization  ....       0.000 sec  (  0.0%)
DIIS solution               ....       0.013 sec  ( 10.2%)
SOSCF solution              ....       0.007 sec  (  5.1%)

-------------------------   --------------------
FINAL SINGLE POINT ENERGY       -19.826481044473
-------------------------   --------------------


                            ***************************************
                            *     ORCA property calculations      *
                            ***************************************

                                    ---------------------
                                    Active property flags
                                    ---------------------
   (+) Dipole Moment


------------------------------------------------------------------------------
                       ORCA ELECTRIC PROPERTIES CALCULATION
------------------------------------------------------------------------------

Dipole Moment Calculation                       ... on
Quadrupole Moment Calculation                   ... off
Polarizability Calculation                      ... off
GBWName                                         ... /Users/mattyjones/GoogleDrive/Boise/Code/MorphCT/tests/output_EZ/donor_polymer/chromophores/input_orca/pair/00006-00019.gbw
Electron density file                           ... /Users/mattyjones/GoogleDrive/Boise/Code/MorphCT/tests/output_EZ/donor_polymer/chromophores/input_orca/pair/00006-00019.scfp.tmp

-------------
DIPOLE MOMENT
-------------
                                X             Y             Z
Electronic contribution:    191.34599     175.85916     -30.41484
Nuclear contribution   :   -104.74110     -94.08796      16.68155
                        -----------------------------------------
Total Dipole Moment    :     86.60489      81.77121     -13.73329
                        -----------------------------------------
Magnitude (a.u.)       :    119.89804
Magnitude (Debye)      :    304.75660


Timings for individual modules:

Sum of individual times         ...        0.224 sec (=   0.004 min)
STO integral calculation        ...        0.049 sec (=   0.001 min)  21.7 %
SCF iterations                  ...        0.175 sec (=   0.003 min)  78.3 %
                             ****ORCA TERMINATED NORMALLY****
TOTAL RUN TIME: 0 days 0 hours 0 minutes 0 seconds 629 msec

