
                                 *****************
                                 * O   R   C   A *
                                 *****************

           --- An Ab Initio, DFT and Semiempirical electronic structure package ---

                  #######################################################
                  #                        -***-                        #
                  #  Department of molecular theory and spectroscopy    #
                  #              Directorship: Frank Neese              #
                  # Max Planck Institute for Chemical Energy Conversion #
                  #                  D-45470 Muelheim/Ruhr              #
                  #                       Germany                       #
                  #                                                     #
                  #                  All rights reserved                #
                  #                        -***-                        #
                  #######################################################


                         Program Version 3.0.3 - RELEASE   -


 With contributions from (in alphabetic order):
   Ute Becker             : Parallelization
   Dmytro Bykov           : SCF Hessian
   Dmitry Ganyushin       : Spin-Orbit,Spin-Spin,Magnetic field MRCI
   Andreas Hansen         : Spin unrestricted coupled pair/coupled cluster methods
   Dimitrios Liakos       : Extrapolation schemes; parallel MDCI
   Robert Izsak           : Overlap fitted RIJCOSX, COSX-SCS-MP3
   Christian Kollmar      : KDIIS, OOCD, Brueckner-CCSD(T), CCSD density
   Simone Kossmann        : Meta GGA functionals, TD-DFT gradient, OOMP2, MP2 Hessian
   Taras Petrenko         : DFT Hessian,TD-DFT gradient, ASA and ECA modules, normal mode analysis, Resonance Raman, ABS, FL, XAS/XES, NRVS
   Christoph Reimann      : Effective Core Potentials
   Michael Roemelt        : Restricted open shell CIS
   Christoph Riplinger    : Improved optimizer, TS searches, QM/MM, DLPNO-CCSD
   Barbara Sandhoefer     : DKH picture change effects
   Igor Schapiro          : Molecular dynamics
   Kantharuban Sivalingam : CASSCF convergence, NEVPT2
   Boris Wezisla          : Elementary symmetry handling
   Frank Wennmohs         : Technical directorship


 We gratefully acknowledge several colleagues who have allowed us to
 interface, adapt or use parts of their codes:
   Stefan Grimme, W. Hujo, H. Kruse, T. Risthaus : VdW corrections, initial TS optimization,
                                                   DFT functionals, gCP
   Ed Valeev                                     : LibInt (2-el integral package), F12 methods
   Garnet Chan, S. Sharma, R. Olivares           : DMRG
   Ulf Ekstrom                                   : XCFun DFT Library
   Mihaly Kallay                                 : mrcc  (arbitrary order and MRCC methods)
   Andreas Klamt, Michael Diedenhofen            : otool_cosmo (COSMO solvation model)
   Frank Weinhold                                : gennbo (NPA and NBO analysis)
   Christopher J. Cramer and Donald G. Truhlar   : smd solvation model


 Your calculation uses the libint2 library for the computation of 2-el integrals
 For citations please refer to: http://libint.valeyev.net

 This ORCA versions uses:
   CBLAS   interface :  Fast vector & matrix operations
   LAPACKE interface :  Fast linear algebra routines
   SCALAPACK package :  Parallel linear algebra routines


leaving
================================================================================
                                        WARNINGS
                       Please study these warnings very carefully!
================================================================================
Now building the actual basis set

WARNING: Direct SCF is incompatible with Method<>HF and Method<>DFT
  ===> : conventional SCF is chosen

WARNING: The NDO methods need Guess=HUECKEL or Guess=HCORE or Guess=MOREAD
  ===> : Guess is set to Hueckel

WARNING: The NDO methods need %rel::SOCType==1
  ===> : %rel::SOCType is set to 1

WARNING: The NDO methods cannot have frozencore=1
  ===> : %method FrozenCore=0 end


INFO   : the flag for use of LIBINT has been found!

================================================================================
                                       INPUT FILE
================================================================================
NAME = /Users/mattyjones/GoogleDrive/Boise/Code/MorphCT/tests/output_EZ/donor_polymer/chromophores/input_orca/pair/00005-00022.inp
|  1> # ================================================================
|  2> # Orca input file made by Matty Jones
|  3> # ================================================================
|  4> ! ZINDO/S 
|  5> ! NOPOP
|  6> ! NOMOPRINT
|  7> * xyz 0   1
|  8>  C  15.91409  -0.84720  -5.56203
|  9>  C  17.13665  -0.19364  -5.40050
| 10>  C  18.01606  -0.82302  -4.46519
| 11>  C  17.48522  -1.97938  -3.88525
| 12>  S  15.97695  -2.15972  -4.55086
| 13>  H  17.32321  0.96412  -5.29542
| 14>  C  19.49212  -0.30482  -4.05644
| 15>  C  19.69753  1.28627  -3.49612
| 16>  C  21.31015  1.74955  -3.18560
| 17>  H  21.30745  2.90279  -3.35518
| 18>  H  21.92461  1.28336  -4.04509
| 19>  H  19.26970  2.00170  -4.28703
| 20>  H  19.11129  1.38789  -2.51121
| 21>  H  19.92751  -0.98658  -3.21435
| 22>  H  20.19386  -0.40603  -4.98572
| 23>  C  22.07235  1.50681  -1.76225
| 24>  C  23.72608  1.91751  -1.79347
| 25>  C  24.13950  3.50809  -1.43016
| 26>  H  25.29385  3.59861  -1.39291
| 27>  H  23.69409  3.80120  -0.40438
| 28>  H  23.72481  4.20694  -2.25369
| 29>  H  24.26475  1.23044  -1.04046
| 30>  H  24.13138  1.71890  -2.85306
| 31>  H  21.99767  0.39268  -1.46737
| 32>  H  21.57440  2.14555  -0.93897
| 33>  C  -22.98354  -4.19836  1.54102
| 34>  C  -22.13790  -3.21800  2.06227
| 35>  C  -22.79177  -2.27813  2.91861
| 36>  C  -24.16061  -2.51751  3.07434
| 37>  S  -24.48531  -3.86058  2.15721
| 38>  H  -21.01689  -3.17026  1.84817
| 39>  C  -21.99603  -1.07182  3.62070
| 40>  C  -20.93242  -0.20054  2.63758
| 41>  C  -20.25059  1.10595  3.46549
| 42>  H  -21.11088  1.62117  4.04665
| 43>  H  -19.87053  1.84461  2.65695
| 44>  H  -20.08795  -0.90085  2.29235
| 45>  H  -21.51316  0.19787  1.72845
| 46>  H  -22.68504  -0.25580  4.04615
| 47>  H  -21.36308  -1.50003  4.50569
| 48>  C  -19.03789  0.79040  4.50075
| 49>  C  -17.49071  0.67846  3.83992
| 50>  C  -17.03719  -0.90309  3.48693
| 51>  H  -15.99654  -1.10921  3.95114
| 52>  H  -16.98469  -1.04119  2.33941
| 53>  H  -17.80831  -1.64362  3.92980
| 54>  H  -17.46161  1.29231  2.86507
| 55>  H  -16.73934  1.11788  4.59459
| 56>  H  -19.25929  -0.20065  5.05617
| 57>  H  -18.99961  1.64140  5.28897
| 58>  H  15.11407  -0.56416  -6.19721
| 59>  H  17.94960  -2.60890  -3.16995
| 60>  H  -22.72105  -4.99161  0.88875
| 61>  H  -24.84702  -1.95774  3.65667
| 62> *
| 63> 
| 64>                          ****END OF INPUT****
================================================================================

                       ****************************
                       * Single Point Calculation *
                       ****************************

---------------------------------
CARTESIAN COORDINATES (ANGSTROEM)
---------------------------------
  C     15.914090   -0.847200   -5.562030
  C     17.136650   -0.193640   -5.400500
  C     18.016060   -0.823020   -4.465190
  C     17.485220   -1.979380   -3.885250
  S     15.976950   -2.159720   -4.550860
  H     17.323210    0.964120   -5.295420
  C     19.492120   -0.304820   -4.056440
  C     19.697530    1.286270   -3.496120
  C     21.310150    1.749550   -3.185600
  H     21.307450    2.902790   -3.355180
  H     21.924610    1.283360   -4.045090
  H     19.269700    2.001700   -4.287030
  H     19.111290    1.387890   -2.511210
  H     19.927510   -0.986580   -3.214350
  H     20.193860   -0.406030   -4.985720
  C     22.072350    1.506810   -1.762250
  C     23.726080    1.917510   -1.793470
  C     24.139500    3.508090   -1.430160
  H     25.293850    3.598610   -1.392910
  H     23.694090    3.801200   -0.404380
  H     23.724810    4.206940   -2.253690
  H     24.264750    1.230440   -1.040460
  H     24.131380    1.718900   -2.853060
  H     21.997670    0.392680   -1.467370
  H     21.574400    2.145550   -0.938970
  C    -22.983540   -4.198360    1.541020
  C    -22.137900   -3.218000    2.062270
  C    -22.791770   -2.278130    2.918610
  C    -24.160610   -2.517510    3.074340
  S    -24.485310   -3.860580    2.157210
  H    -21.016890   -3.170260    1.848170
  C    -21.996030   -1.071820    3.620700
  C    -20.932420   -0.200540    2.637580
  C    -20.250590    1.105950    3.465490
  H    -21.110880    1.621170    4.046650
  H    -19.870530    1.844610    2.656950
  H    -20.087950   -0.900850    2.292350
  H    -21.513160    0.197870    1.728450
  H    -22.685040   -0.255800    4.046150
  H    -21.363080   -1.500030    4.505690
  C    -19.037890    0.790400    4.500750
  C    -17.490710    0.678460    3.839920
  C    -17.037190   -0.903090    3.486930
  H    -15.996540   -1.109210    3.951140
  H    -16.984690   -1.041190    2.339410
  H    -17.808310   -1.643620    3.929800
  H    -17.461610    1.292310    2.865070
  H    -16.739340    1.117880    4.594590
  H    -19.259290   -0.200650    5.056170
  H    -18.999610    1.641400    5.288970
  H     15.114070   -0.564160   -6.197210
  H     17.949600   -2.608900   -3.169950
  H    -22.721050   -4.991610    0.888750
  H    -24.847020   -1.957740    3.656670

----------------------------
CARTESIAN COORDINATES (A.U.)
----------------------------
  NO LB      ZA    FRAG    MASS        X           Y           Z
   0 C     4.0000    0    12.011         30.073271770574852         -1.600975980658084        -10.510713448654020
   1 C     4.0000    0    12.011         32.383575352861619         -0.365926568572511        -10.205465986241720
   2 C     4.0000    0    12.011         34.045419412293306         -1.555282402739868         -8.437986235923834
   3 C     4.0000    0    12.011         33.042277191362551         -3.740486114961047         -7.342058461817543
   4 S     6.0000    0    32.060         30.192059955353141         -4.081279325952406         -8.599879073816867
   5 H     1.0000    0     1.008         32.736122660405968          1.821922760236157        -10.006893564089275
   6 C     4.0000    0    12.011         36.834768569529110         -0.576026320141876         -7.665560678683523
   7 C     4.0000    0    12.011         37.222937214697872          2.430698034278889         -6.606709331324766
   8 C     4.0000    0    12.011         40.270347372781963          3.306170357601926         -6.019911572219539
   9 H     1.0000    0     1.008         40.265245112220370          5.485478124285270         -6.340371330009905
  10 H     1.0000    0     1.008         41.431508493031217          2.425198931229178         -7.644112287063516
  11 H     1.0000    0     1.008         36.414455682822343          3.782664802270169         -8.101312627904424
  12 H     1.0000    0     1.008         36.115104165947876          2.622732004007966         -4.745499164764387
  13 H     1.0000    0     1.008         37.657536430977082         -1.864366009204028         -6.074241198569776
  14 H     1.0000    0     1.008         38.160864986747008         -0.767285502156046         -9.421645380413862
  15 C     4.0000    0    12.011         41.710696632056738          2.847458235853881         -3.330169879502726
  16 C     4.0000    0    12.011         44.835793431506332          3.623568759055339         -3.389167129403747
  17 C     4.0000    0    12.011         45.617044009792060          6.629329353147804         -2.702610727688818
  18 H     1.0000    0     1.008         47.798449372484050          6.800387362790355         -2.632218429200251
  19 H     1.0000    0     1.008         44.775341092482186          7.183226980261462         -0.764167454035076
  20 H     1.0000    0     1.008         44.833393479316257          7.949964461838671         -4.258856890756986
  21 H     1.0000    0     1.008         45.853732208065693          2.325194624222065         -1.966184453299705
  22 H     1.0000    0     1.008         45.601699433584614          3.248250251597240         -5.391502043645366
  23 H     1.0000    0     1.008         41.569571884375499          0.742057658268197         -2.772927437132027
  24 H     1.0000    0     1.008         40.769707503670652          4.054501906634742         -1.774396147968038
  25 C     4.0000    0    12.011        -43.432596188024448         -7.933750611609626          2.912105766895327
  26 C     4.0000    0    12.011        -41.834568180135271         -6.081138698958588          3.897125514201779
  27 C     4.0000    0    12.011        -43.070203407322367         -4.305041797470021          5.515373591723905
  28 C     4.0000    0    12.011        -45.656936128479131         -4.757404439408091          5.809660642559461
  29 S     6.0000    0    32.060        -46.270530204163357         -7.295438918093706          4.076536113356264
  30 H     1.0000    0     1.008        -39.716166286748212         -5.990923173325187          3.492535148929240
  31 C     4.0000    0    12.011        -41.566472733515873         -2.025446264859476          6.842131413088675
  32 C     4.0000    0    12.011        -39.556541120215890         -0.378965678896568          4.984303856308014
  33 C     4.0000    0    12.011        -38.268069150324358          2.089942617810208          6.548827019842759
  34 H     1.0000    0     1.008        -39.893781646075475          3.063567316529116          7.647060259832433
  35 H     1.0000    0     1.008        -37.549859835866243          3.485807723892480          5.020907851522070
  36 H     1.0000    0     1.008        -37.960724091903408         -1.702359787742960          4.331913703094381
  37 H     1.0000    0     1.008        -40.653980675229313          0.373920110118998          3.266297136176187
  38 H     1.0000    0     1.008        -42.868512937048955         -0.483391945057056          7.646115396765472
  39 H     1.0000    0     1.008        -40.370370577050416         -2.834645892665895          8.514520144347646
  40 C     4.0000    0    12.011        -35.976398267718061          1.493639536251357          8.505184897246073
  41 C     4.0000    0    12.011        -33.052651787837775          1.282103592820212          7.256397176166893
  42 C     4.0000    0    12.011        -32.195623191581809         -1.706592774282943          6.589342748154031
  43 H     1.0000    0     1.008        -30.229079690316659         -2.096103125006791          7.466572516781614
  44 H     1.0000    0     1.008        -32.096412569550942         -1.967563953377468          4.420844214956715
  45 H     1.0000    0     1.008        -33.652828807971161         -3.105991668235648          7.426245761083735
  46 H     1.0000    0     1.008        -32.997660757340668          2.442111980127773          5.414197654513760
  47 H     1.0000    0     1.008        -31.632768262593363          2.112487050587889          8.682516797653244
  48 H     1.0000    0     1.008        -36.394783633768220         -0.379173548771299          9.554776586548615
  49 H     1.0000    0     1.008        -35.904059551311555          3.101796476218342          9.994704830525482
  50 H     1.0000    0     1.008         28.561453068915171         -1.066107895713013        -11.711029694398119
  51 H     1.0000    0     1.008         33.919828213432901         -4.930106510787154         -5.990337358223671
  52 H     1.0000    0     1.008        -42.936561975131461         -9.432775867342658          1.679494101522512
  53 H     1.0000    0     1.008        -46.954063044064021         -3.699592441422991          6.910104862125824

--------------------------------
INTERNAL COORDINATES (ANGSTROEM)
--------------------------------
 C      0   0   0   0.000000     0.000     0.000
 C      1   0   0   1.395667     0.000     0.000
 C      2   1   0   1.429785   114.102     0.000
 C      3   2   1   1.398317   113.693     0.000
 S      1   2   3   1.658049   105.480     0.000
 H      2   1   3   1.177393   127.560   223.378
 C      3   2   1   1.616899   125.858   180.385
 C      7   3   2   1.699329   119.589    54.290
 C      8   7   3   1.706339   115.369   183.558
 H      9   8   7   1.165645   103.884   152.110
 H      9   8   7   1.154823   104.940    39.923
 H      8   7   3   1.149094   108.119   304.483
 H      8   7   3   1.150674   107.658    63.464
 H      7   3   2   1.167680   109.608   175.914
 H      7   3   2   1.168864   108.623   292.973
 C      9   8   7   1.632727   124.019   272.681
 C     16   9   8   1.704251   113.653   173.743
 C     17  16   9   1.683109   117.525    88.373
 H     18  17  16   1.158493   108.998   174.529
 H     18  17  16   1.156083   109.663    54.536
 H     18  17  16   1.156962   109.217   294.053
 H     17  16   9   1.152933   107.325   210.089
 H     17  16   9   1.151714   108.468   328.300
 H     16   9   8   1.154910   109.622    53.495
 H     16   9   8   1.154874   109.752   293.950
 C      5   1   2  39.486540    95.598   151.712
 C     26   5   1   1.395677    54.797   287.835
 C     27  26   5   1.429762   114.101   182.636
 C     28  27  26   1.398312   113.694     0.000
 S     26   5   1   1.658041   160.136   280.341
 H     27  26   5   1.142270   123.640     1.522
 C     28  27  26   1.606648   121.924   179.964
 C     32  28  27   1.690243   116.393    45.557
 C     33  32  28   1.690338   111.553   175.745
 H     34  33  32   1.159007   106.845   315.603
 H     34  33  32   1.159224   106.447   200.331
 H     33  32  28   1.150108   108.830   295.737
 H     33  32  28   1.150003   108.701    55.713
 H     32  28  27   1.149622   113.443   164.949
 H     32  28  27   1.169272   108.898   284.883
 C     34  33  32   1.625416   117.571    78.023
 C     41  34  33   1.686118   116.607    84.175
 C     42  41  34   1.682731   113.074   264.810
 H     43  42  41   1.157985   108.990   230.632
 H     43  42  41   1.156992   109.419   110.790
 H     43  42  41   1.157214   109.973   350.507
 H     42  41  34   1.152385   108.624    25.239
 H     42  41  34   1.152030   108.446   144.219
 H     41  34  33   1.157450   109.217   321.632
 H     41  34  33   1.160585   108.350   204.274
 H      1   2   3   1.059999   127.260   180.000
 H      4   3   2   1.059999   127.206   180.000
 H     26   5   1   1.060001    72.505   105.636
 H     29  28  27   1.060004   127.206   180.000

---------------------------
INTERNAL COORDINATES (A.U.)
---------------------------
 C      0   0   0   0.000000     0.000     0.000
 C      1   0   0   2.637428     0.000     0.000
 C      2   1   0   2.701903   114.102     0.000
 C      3   2   1   2.642436   113.693     0.000
 S      1   2   3   3.133258   105.480     0.000
 H      2   1   3   2.224951   127.560   223.378
 C      3   2   1   3.055495   125.858   180.385
 C      7   3   2   3.211266   119.589    54.290
 C      8   7   3   3.224514   115.369   183.558
 H      9   8   7   2.202749   103.884   152.110
 H      9   8   7   2.182300   104.940    39.923
 H      8   7   3   2.171473   108.119   304.483
 H      8   7   3   2.174460   107.658    63.464
 H      7   3   2   2.206596   109.608   175.914
 H      7   3   2   2.208833   108.623   292.973
 C      9   8   7   3.085406   124.019   272.681
 C     16   9   8   3.220568   113.653   173.743
 C     17  16   9   3.180615   117.525    88.373
 H     18  17  16   2.189234   108.998   174.529
 H     18  17  16   2.184680   109.663    54.536
 H     18  17  16   2.186341   109.217   294.053
 H     17  16   9   2.178728   107.325   210.089
 H     17  16   9   2.176424   108.468   328.300
 H     16   9   8   2.182463   109.622    53.495
 H     16   9   8   2.182395   109.752   293.950
 C      5   1   2  74.618746    95.598   151.712
 C     26   5   1   2.637447    54.797   287.835
 C     27  26   5   2.701859   114.101   182.636
 C     28  27  26   2.642427   113.694     0.000
 S     26   5   1   3.133243   160.136   280.341
 H     27  26   5   2.158578   123.640     1.522
 C     28  27  26   3.036124   121.924   179.964
 C     32  28  27   3.194096   116.393    45.557
 C     33  32  28   3.194276   111.553   175.745
 H     34  33  32   2.190206   106.845   315.603
 H     34  33  32   2.190617   106.447   200.331
 H     33  32  28   2.173388   108.830   295.737
 H     33  32  28   2.173191   108.701    55.713
 H     32  28  27   2.172471   113.443   164.949
 H     32  28  27   2.209604   108.898   284.883
 C     34  33  32   3.071591   117.571    78.023
 C     41  34  33   3.186301   116.607    84.175
 C     42  41  34   3.179900   113.074   264.810
 H     43  42  41   2.188274   108.990   230.632
 H     43  42  41   2.186398   109.419   110.790
 H     43  42  41   2.186818   109.973   350.507
 H     42  41  34   2.177692   108.624    25.239
 H     42  41  34   2.177022   108.446   144.219
 H     41  34  33   2.187263   109.217   321.632
 H     41  34  33   2.193187   108.350   204.274
 H      1   2   3   2.003107   127.260   180.000
 H      4   3   2   2.003108   127.206   180.000
 H     26   5   1   2.003112    72.505   105.636
 H     29  28  27   2.003118   127.206   180.000

----------------------------
SLATER BASIS SET DIM= 120
----------------------------
  0 C     2 shells
 l=0 nsto= 1
    2       1.625000000000        1.000000000000
 l=1 nsto= 1
    2       1.625000000000        1.000000000000
  1 C     2 shells
 l=0 nsto= 1
    2       1.625000000000        1.000000000000
 l=1 nsto= 1
    2       1.625000000000        1.000000000000
  2 C     2 shells
 l=0 nsto= 1
    2       1.625000000000        1.000000000000
 l=1 nsto= 1
    2       1.625000000000        1.000000000000
  3 C     2 shells
 l=0 nsto= 1
    2       1.625000000000        1.000000000000
 l=1 nsto= 1
    2       1.625000000000        1.000000000000
  4 S     2 shells
 l=0 nsto= 1
    3       1.925000000000        1.000000000000
 l=1 nsto= 1
    3       1.925000000000        1.000000000000
  5 H     1 shells
 l=0 nsto= 1
    1       1.200000000000        1.000000000000
  6 C     2 shells
 l=0 nsto= 1
    2       1.625000000000        1.000000000000
 l=1 nsto= 1
    2       1.625000000000        1.000000000000
  7 C     2 shells
 l=0 nsto= 1
    2       1.625000000000        1.000000000000
 l=1 nsto= 1
    2       1.625000000000        1.000000000000
  8 C     2 shells
 l=0 nsto= 1
    2       1.625000000000        1.000000000000
 l=1 nsto= 1
    2       1.625000000000        1.000000000000
  9 H     1 shells
 l=0 nsto= 1
    1       1.200000000000        1.000000000000
 10 H     1 shells
 l=0 nsto= 1
    1       1.200000000000        1.000000000000
 11 H     1 shells
 l=0 nsto= 1
    1       1.200000000000        1.000000000000
 12 H     1 shells
 l=0 nsto= 1
    1       1.200000000000        1.000000000000
 13 H     1 shells
 l=0 nsto= 1
    1       1.200000000000        1.000000000000
 14 H     1 shells
 l=0 nsto= 1
    1       1.200000000000        1.000000000000
 15 C     2 shells
 l=0 nsto= 1
    2       1.625000000000        1.000000000000
 l=1 nsto= 1
    2       1.625000000000        1.000000000000
 16 C     2 shells
 l=0 nsto= 1
    2       1.625000000000        1.000000000000
 l=1 nsto= 1
    2       1.625000000000        1.000000000000
 17 C     2 shells
 l=0 nsto= 1
    2       1.625000000000        1.000000000000
 l=1 nsto= 1
    2       1.625000000000        1.000000000000
 18 H     1 shells
 l=0 nsto= 1
    1       1.200000000000        1.000000000000
 19 H     1 shells
 l=0 nsto= 1
    1       1.200000000000        1.000000000000
 20 H     1 shells
 l=0 nsto= 1
    1       1.200000000000        1.000000000000
 21 H     1 shells
 l=0 nsto= 1
    1       1.200000000000        1.000000000000
 22 H     1 shells
 l=0 nsto= 1
    1       1.200000000000        1.000000000000
 23 H     1 shells
 l=0 nsto= 1
    1       1.200000000000        1.000000000000
 24 H     1 shells
 l=0 nsto= 1
    1       1.200000000000        1.000000000000
 25 C     2 shells
 l=0 nsto= 1
    2       1.625000000000        1.000000000000
 l=1 nsto= 1
    2       1.625000000000        1.000000000000
 26 C     2 shells
 l=0 nsto= 1
    2       1.625000000000        1.000000000000
 l=1 nsto= 1
    2       1.625000000000        1.000000000000
 27 C     2 shells
 l=0 nsto= 1
    2       1.625000000000        1.000000000000
 l=1 nsto= 1
    2       1.625000000000        1.000000000000
 28 C     2 shells
 l=0 nsto= 1
    2       1.625000000000        1.000000000000
 l=1 nsto= 1
    2       1.625000000000        1.000000000000
 29 S     2 shells
 l=0 nsto= 1
    3       1.925000000000        1.000000000000
 l=1 nsto= 1
    3       1.925000000000        1.000000000000
 30 H     1 shells
 l=0 nsto= 1
    1       1.200000000000        1.000000000000
 31 C     2 shells
 l=0 nsto= 1
    2       1.625000000000        1.000000000000
 l=1 nsto= 1
    2       1.625000000000        1.000000000000
 32 C     2 shells
 l=0 nsto= 1
    2       1.625000000000        1.000000000000
 l=1 nsto= 1
    2       1.625000000000        1.000000000000
 33 C     2 shells
 l=0 nsto= 1
    2       1.625000000000        1.000000000000
 l=1 nsto= 1
    2       1.625000000000        1.000000000000
 34 H     1 shells
 l=0 nsto= 1
    1       1.200000000000        1.000000000000
 35 H     1 shells
 l=0 nsto= 1
    1       1.200000000000        1.000000000000
 36 H     1 shells
 l=0 nsto= 1
    1       1.200000000000        1.000000000000
 37 H     1 shells
 l=0 nsto= 1
    1       1.200000000000        1.000000000000
 38 H     1 shells
 l=0 nsto= 1
    1       1.200000000000        1.000000000000
 39 H     1 shells
 l=0 nsto= 1
    1       1.200000000000        1.000000000000
 40 C     2 shells
 l=0 nsto= 1
    2       1.625000000000        1.000000000000
 l=1 nsto= 1
    2       1.625000000000        1.000000000000
 41 C     2 shells
 l=0 nsto= 1
    2       1.625000000000        1.000000000000
 l=1 nsto= 1
    2       1.625000000000        1.000000000000
 42 C     2 shells
 l=0 nsto= 1
    2       1.625000000000        1.000000000000
 l=1 nsto= 1
    2       1.625000000000        1.000000000000
 43 H     1 shells
 l=0 nsto= 1
    1       1.200000000000        1.000000000000
 44 H     1 shells
 l=0 nsto= 1
    1       1.200000000000        1.000000000000
 45 H     1 shells
 l=0 nsto= 1
    1       1.200000000000        1.000000000000
 46 H     1 shells
 l=0 nsto= 1
    1       1.200000000000        1.000000000000
 47 H     1 shells
 l=0 nsto= 1
    1       1.200000000000        1.000000000000
 48 H     1 shells
 l=0 nsto= 1
    1       1.200000000000        1.000000000000
 49 H     1 shells
 l=0 nsto= 1
    1       1.200000000000        1.000000000000
 50 H     1 shells
 l=0 nsto= 1
    1       1.200000000000        1.000000000000
 51 H     1 shells
 l=0 nsto= 1
    1       1.200000000000        1.000000000000
 52 H     1 shells
 l=0 nsto= 1
    1       1.200000000000        1.000000000000
 53 H     1 shells
 l=0 nsto= 1
    1       1.200000000000        1.000000000000
------------------------------------------------------------------------------
                           ORCA NDO INTEGRAL CALCULATION
------------------------------------------------------------------------------

--------------
NDO PARAMETERS
--------------

Gamma integral treatment              ... Mataga-Nishimoto
Nuclear repulsuion treatment          ... Direct (ZA*ZB/RAB)
Interaction factors:
s-s (sigma) =    1.0000
s-p (sigma) =    1.0000
s-d (sigma) =    1.0000
p-p (sigma) =    1.2670  p-p(pi) =    0.5850
p-d (sigma) =    1.0000  p-d(pi) =    1.0000
d-d (sigma) =    1.0000  d-d(pi) =    1.0000 d-d (delta) =    1.0000

fGamma parameter for Mataga-Nishimoto gamma integrals:    1.2000

--------------------------
Parameters for Element H :
--------------------------
 One-electron parameters (in eV)
  U(s)  =   -13.060000 Beta(s) =    12.000000 Neff(s) =     1.000000
 One-center electron repulsion parameters (in eV)
  G(s,s)=    12.850000
--------------------------
Parameters for Element C :
--------------------------
 One-electron parameters (in eV)
  U(s)  =   -50.870766 Beta(s) =    17.000000 Neff(s) =     2.000000
  U(p)  =   -41.599980 Beta(p) =    17.000000 Neff(p) =     2.000000 
 One-center electron repulsion parameters (in eV)
  G(s,s)=    11.110000
  G(s,p)=    11.110000 G(p,p)  =    11.110000
 Slater-Condon parameters (in eV)
 F2(p,p)=     4.5098 G1(s,p)=    6.8977
--------------------------
Parameters for Element S :
--------------------------
 One-electron parameters (in eV)
  U(s)  =   -69.509597 Beta(s) =    15.000000 Neff(s) =     2.000000
  U(p)  =   -60.725746 Beta(p) =    15.000000 Neff(p) =     4.000000 
 One-center electron repulsion parameters (in eV)
  G(s,s)=    10.090000
  G(s,p)=    10.090000 G(p,p)  =    10.090000
 Slater-Condon parameters (in eV)
 F2(p,p)=     4.5377 G1(s,p)=    3.0756

 Number of atoms                    ....   54
 Number of basis functions          ....  120

 Overlap integrals                  .... done
 One electron matrix                .... done
 Nuclear repulsion                  .... done
 Integral list                      .... done
 Electron-electron repulsion        .... done
-------------------------------------------------------------------------------
                                 ORCA SCF
-------------------------------------------------------------------------------

------------
SCF SETTINGS
------------
Hamiltonian:
 ZDO-Hamiltonian        Method          .... INDO


General Settings:
 Integral files         IntName         .... /Users/mattyjones/GoogleDrive/Boise/Code/MorphCT/tests/output_EZ/donor_polymer/chromophores/input_orca/pair/00005-00022
 Hartree-Fock type      HFTyp           .... RHF
 Total Charge           Charge          ....    0
 Multiplicity           Mult            ....    1
 Number of Electrons    NEL             ....  124
 Basis Dimension        Dim             ....  120
 Nuclear Repulsion      ENuc            ....    636.2792035395 Eh

Convergence Acceleration:
 DIIS                   CNVDIIS         .... on
   Start iteration      DIISMaxIt       ....    12
   Startup error        DIISStart       ....  0.200000
   # of expansion vecs  DIISMaxEq       ....     5
   Bias factor          DIISBfac        ....   1.050
   Max. coefficient     DIISMaxC        ....  10.000
 Newton-Raphson         CNVNR           .... off
 SOSCF                  CNVSOSCF        .... on
   Start iteration      SOSCFMaxIt      ....   150
   Startup grad/error   SOSCFStart      ....  0.003300
 Level Shifting         CNVShift        .... on
   Level shift para.    LevelShift      ....    0.2500
   Turn off err/grad.   ShiftErr        ....    0.0010
 Zerner damping         CNVZerner       .... off
 Static damping         CNVDamp         .... on
   Fraction old density DampFac         ....    0.7000
   Max. Damping (<1)    DampMax         ....    0.9800
   Min. Damping (>=0)   DampMin         ....    0.0000
   Turn off err/grad.   DampErr         ....    0.1000
 Fernandez-Rico         CNVRico         .... off

SCF Procedure:
 Maximum # iterations   MaxIter         ....   125
 SCF integral mode      SCFMode         .... Conventional
 Integral Buffer length BufferLength    .... 1048576
 Integral index format  IndFormat       ....     0
 Integral value format  ValFormat       ....     0
 Integral Storage       Thresh          ....  1.000e-08 Eh

Convergence Tolerance:
 Convergence Check Mode ConvCheckMode   .... Total+1el-Energy
 Energy Change          TolE            ....  1.000e-06 Eh
 1-El. energy change                    ....  1.000e-03 Eh
 Orbital Gradient       TolG            ....  5.000e-05
 Orbital Rotation angle TolX            ....  5.000e-05
 DIIS Error             TolErr          ....  1.000e-06


Diagonalization of the overlap matrix:
Smallest eigenvalue                        ... 1.689e-01
Time for diagonalization                   ...    0.003 sec
Threshold for overlap eigenvalues          ... 1.000e-08
Number of eigenvalues below threshold      ... 0
Time for construction of square roots      ...    0.000 sec
Total time needed                          ...    0.004 sec

-------------------------------
INITIAL GUESS: EXTENDED HUECKEL
-------------------------------
EHT matrix was read from disk
EHT matrix was diagonalized
Initial density was built
                      ------------------
                      INITIAL GUESS DONE
                      ------------------

 InCore treatment chosen:
   Memory dedicated               ...    1024 MB
   Memory needed                  ...      0 MB
   Number of tiny    integrals    ...       0
   Number of small   integrals    ...       0
   Number of regular integrals    ...    7392

--------------
SCF ITERATIONS
--------------
ITER       Energy         Delta-E        Max-DP      RMS-DP      [F,P]     Damp
  0    -21.5419074237   0.000000000000 0.04298685  0.00147420  0.0971338 0.7000
  1    -21.5850236763  -0.043116252674 0.03994495  0.00139002  0.0674118 0.7000
                               ***Turning on DIIS***
  2    -21.6168715322  -0.031847855837 0.09901134  0.00356599  0.0445743 0.0000
  3    -21.7000082554  -0.083136723177 0.01674145  0.00073333  0.0201150 0.0000
  4    -21.6846348314   0.015373423983 0.01082892  0.00051031  0.0072758 0.0000
  5    -21.7019322979  -0.017297466547 0.00748009  0.00034798  0.0040676 0.0000
  6    -21.7042650768  -0.002332778867 0.00574898  0.00024971  0.0021356 0.0000
                      *** Initiating the SOSCF procedure ***
                           *** Shutting down DIIS ***
                      *** Re-Reading the Fockian *** 
                      *** Removing any level shift *** 
ITER      Energy       Delta-E        Grad      Rot      Max-DP    RMS-DP
  7    -21.70045805   0.0038070314  0.003221  0.003221  0.003520  0.000143
  8    -21.69839836   0.0020596878  0.000944  0.002684  0.001776  0.000068
  9    -21.69841572  -0.0000173577  0.000418  0.002701  0.002169  0.000075
 10    -21.69842242  -0.0000067032  0.000042  0.000081  0.000147  0.000005
                 **** Energy Check signals convergence ****
              ***Rediagonalizing the Fockian in SOSCF/NRSCF***

               *****************************************************
               *                     SUCCESS                       *
               *           SCF CONVERGED AFTER  11 CYCLES          *
               *****************************************************


----------------
TOTAL SCF ENERGY
----------------

Total Energy       :          -21.69842249 Eh            -590.44409 eV

Components:
Nuclear Repulsion  :          636.27920354 Eh           17314.03736 eV
Electronic Energy  :         -657.97762603 Eh          -17904.48145 eV

One Electron Energy:        -1225.53739943 Eh          -33348.56805 eV
Two Electron Energy:          567.55977340 Eh           15444.08660 eV


---------------
SCF CONVERGENCE
---------------

  Last Energy change         ...   -6.7581e-08  Tolerance :   1.0000e-06
  Last MAX-Density change    ...    6.4477e-05  Tolerance :   1.0000e-05
  Last RMS-Density change    ...    1.7339e-06  Tolerance :   1.0000e-06
  Last Orbital Gradient      ...    1.8033e-05  Tolerance :   5.0000e-05
  Last Orbital Rotation      ...    3.6093e-05  Tolerance :   5.0000e-05

             **** THE GBW FILE WAS UPDATED (/Users/mattyjones/GoogleDrive/Boise/Code/MorphCT/tests/output_EZ/donor_polymer/chromophores/input_orca/pair/00005-00022.gbw) ****
             **** DENSITY FILE WAS UPDATED (/Users/mattyjones/GoogleDrive/Boise/Code/MorphCT/tests/output_EZ/donor_polymer/chromophores/input_orca/pair/00005-00022.scfp.tmp) ****
             **** ENERGY FILE WAS UPDATED (/Users/mattyjones/GoogleDrive/Boise/Code/MorphCT/tests/output_EZ/donor_polymer/chromophores/input_orca/pair/00005-00022.en.tmp) ****
----------------
ORBITAL ENERGIES
----------------

  NO   OCC          E(Eh)            E(eV) 
   0   2.0000      -1.560149       -42.4538 
   1   2.0000      -1.558107       -42.3982 
   2   2.0000      -1.411958       -38.4213 
   3   2.0000      -1.391566       -37.8664 
   4   2.0000      -1.293062       -35.1860 
   5   2.0000      -1.292228       -35.1633 
   6   2.0000      -1.178776       -32.0761 
   7   2.0000      -1.176670       -32.0188 
   8   2.0000      -1.116089       -30.3703 
   9   2.0000      -1.109808       -30.1994 
  10   2.0000      -1.041409       -28.3382 
  11   2.0000      -1.039567       -28.2881 
  12   2.0000      -0.960975       -26.1495 
  13   2.0000      -0.949246       -25.8303 
  14   2.0000      -0.914368       -24.8812 
  15   2.0000      -0.901841       -24.5403 
  16   2.0000      -0.860675       -23.4201 
  17   2.0000      -0.858650       -23.3650 
  18   2.0000      -0.832405       -22.6509 
  19   2.0000      -0.822984       -22.3945 
  20   2.0000      -0.772554       -21.0223 
  21   2.0000      -0.770098       -20.9554 
  22   2.0000      -0.736049       -20.0289 
  23   2.0000      -0.734743       -19.9934 
  24   2.0000      -0.709279       -19.3005 
  25   2.0000      -0.681453       -18.5433 
  26   2.0000      -0.673792       -18.3348 
  27   2.0000      -0.658388       -17.9157 
  28   2.0000      -0.649873       -17.6839 
  29   2.0000      -0.646209       -17.5842 
  30   2.0000      -0.624180       -16.9848 
  31   2.0000      -0.617817       -16.8116 
  32   2.0000      -0.583269       -15.8715 
  33   2.0000      -0.580164       -15.7871 
  34   2.0000      -0.577601       -15.7173 
  35   2.0000      -0.575237       -15.6530 
  36   2.0000      -0.570682       -15.5291 
  37   2.0000      -0.570517       -15.5245 
  38   2.0000      -0.559574       -15.2268 
  39   2.0000      -0.552185       -15.0257 
  40   2.0000      -0.541874       -14.7451 
  41   2.0000      -0.529499       -14.4084 
  42   2.0000      -0.521039       -14.1782 
  43   2.0000      -0.515007       -14.0141 
  44   2.0000      -0.506627       -13.7860 
  45   2.0000      -0.506231       -13.7752 
  46   2.0000      -0.495436       -13.4815 
  47   2.0000      -0.495239       -13.4761 
  48   2.0000      -0.488409       -13.2903 
  49   2.0000      -0.488296       -13.2872 
  50   2.0000      -0.481428       -13.1003 
  51   2.0000      -0.475286       -12.9332 
  52   2.0000      -0.472783       -12.8651 
  53   2.0000      -0.468432       -12.7467 
  54   2.0000      -0.464844       -12.6490 
  55   2.0000      -0.454394       -12.3647 
  56   2.0000      -0.437924       -11.9165 
  57   2.0000      -0.436988       -11.8911 
  58   2.0000      -0.356411        -9.6984 
  59   2.0000      -0.349469        -9.5095 
  60   2.0000      -0.304634        -8.2895 
  61   2.0000      -0.304503        -8.2860 
  62   0.0000       0.002344         0.0638 
  63   0.0000       0.008096         0.2203 
  64   0.0000       0.057946         1.5768 
  65   0.0000       0.071883         1.9560 
  66   0.0000       0.073516         2.0005 
  67   0.0000       0.079732         2.1696 
  68   0.0000       0.087945         2.3931 
  69   0.0000       0.089601         2.4382 
  70   0.0000       0.104468         2.8427 
  71   0.0000       0.104679         2.8485 
  72   0.0000       0.108896         2.9632 
  73   0.0000       0.109324         2.9748 
  74   0.0000       0.123965         3.3733 
  75   0.0000       0.126025         3.4293 
  76   0.0000       0.142386         3.8745 
  77   0.0000       0.144235         3.9248 
  78   0.0000       0.155180         4.2227 
  79   0.0000       0.156417         4.2563 
  80   0.0000       0.165103         4.4927 
  81   0.0000       0.168683         4.5901 
  82   0.0000       0.170051         4.6273 
  83   0.0000       0.178733         4.8636 
  84   0.0000       0.199505         5.4288 
  85   0.0000       0.206830         5.6281 
  86   0.0000       0.232141         6.3169 
  87   0.0000       0.234767         6.3883 
  88   0.0000       0.235093         6.3972 
  89   0.0000       0.235887         6.4188 
  90   0.0000       0.237291         6.4570 
  91   0.0000       0.237378         6.4594 
  92   0.0000       0.239566         6.5189 
  93   0.0000       0.240045         6.5319 
  94   0.0000       0.241220         6.5639 
  95   0.0000       0.241576         6.5736 
  96   0.0000       0.242596         6.6014 
  97   0.0000       0.244221         6.6456 
  98   0.0000       0.245529         6.6812 
  99   0.0000       0.246099         6.6967 
 100   0.0000       0.251380         6.8404 
 101   0.0000       0.255130         6.9424 
 102   0.0000       0.257387         7.0038 
 103   0.0000       0.265282         7.2187 
 104   0.0000       0.266241         7.2448 
 105   0.0000       0.267398         7.2763 
 106   0.0000       0.275235         7.4895 
 107   0.0000       0.280457         7.6316 
 108   0.0000       0.302352         8.2274 
 109   0.0000       0.304079         8.2744 
 110   0.0000       0.309225         8.4144 
 111   0.0000       0.310445         8.4476 
 112   0.0000       0.338612         9.2141 
 113   0.0000       0.342815         9.3285 
 114   0.0000       0.351597         9.5674 
 115   0.0000       0.353696         9.6246 
 116   0.0000       0.408981        11.1289 
 117   0.0000       0.413833        11.2610 
 118   0.0000       0.430049        11.7022 
 119   0.0000       0.433303        11.7908 
-------
TIMINGS
-------

Total SCF time: 0 days 0 hours 0 min 0 sec 

Total time                  ....       0.106 sec
Sum of individual times     ....       0.085 sec  ( 80.0%)

Fock matrix formation       ....       0.038 sec  ( 36.3%)
Diagonalization             ....       0.023 sec  ( 22.0%)
Density matrix formation    ....       0.005 sec  (  4.6%)
Population analysis         ....       0.000 sec  (  0.0%)
Initial guess               ....       0.003 sec  (  2.8%)
Orbital Transformation      ....       0.000 sec  (  0.0%)
Orbital Orthonormalization  ....       0.000 sec  (  0.0%)
DIIS solution               ....       0.010 sec  (  9.3%)
SOSCF solution              ....       0.005 sec  (  5.0%)

-------------------------   --------------------
FINAL SINGLE POINT ENERGY       -21.698422486091
-------------------------   --------------------


                            ***************************************
                            *     ORCA property calculations      *
                            ***************************************

                                    ---------------------
                                    Active property flags
                                    ---------------------
   (+) Dipole Moment


------------------------------------------------------------------------------
                       ORCA ELECTRIC PROPERTIES CALCULATION
------------------------------------------------------------------------------

Dipole Moment Calculation                       ... on
Quadrupole Moment Calculation                   ... off
Polarizability Calculation                      ... off
GBWName                                         ... /Users/mattyjones/GoogleDrive/Boise/Code/MorphCT/tests/output_EZ/donor_polymer/chromophores/input_orca/pair/00005-00022.gbw
Electron density file                           ... /Users/mattyjones/GoogleDrive/Boise/Code/MorphCT/tests/output_EZ/donor_polymer/chromophores/input_orca/pair/00005-00022.scfp.tmp

-------------
DIPOLE MOMENT
-------------
                                X             Y             Z
Electronic contribution:   -220.94981    -158.51631     -69.47246
Nuclear contribution   :    123.10184      85.18828      36.87011
                        -----------------------------------------
Total Dipole Moment    :    -97.84796     -73.32803     -32.60235
                        -----------------------------------------
Magnitude (a.u.)       :    126.54698
Magnitude (Debye)      :    321.65686


Timings for individual modules:

Sum of individual times         ...        0.195 sec (=   0.003 min)
STO integral calculation        ...        0.054 sec (=   0.001 min)  27.5 %
SCF iterations                  ...        0.141 sec (=   0.002 min)  72.5 %
                             ****ORCA TERMINATED NORMALLY****
TOTAL RUN TIME: 0 days 0 hours 0 minutes 0 seconds 498 msec

