
                                 *****************
                                 * O   R   C   A *
                                 *****************

           --- An Ab Initio, DFT and Semiempirical electronic structure package ---

                  #######################################################
                  #                        -***-                        #
                  #  Department of molecular theory and spectroscopy    #
                  #              Directorship: Frank Neese              #
                  # Max Planck Institute for Chemical Energy Conversion #
                  #                  D-45470 Muelheim/Ruhr              #
                  #                       Germany                       #
                  #                                                     #
                  #                  All rights reserved                #
                  #                        -***-                        #
                  #######################################################


                         Program Version 3.0.3 - RELEASE   -


 With contributions from (in alphabetic order):
   Ute Becker             : Parallelization
   Dmytro Bykov           : SCF Hessian
   Dmitry Ganyushin       : Spin-Orbit,Spin-Spin,Magnetic field MRCI
   Andreas Hansen         : Spin unrestricted coupled pair/coupled cluster methods
   Dimitrios Liakos       : Extrapolation schemes; parallel MDCI
   Robert Izsak           : Overlap fitted RIJCOSX, COSX-SCS-MP3
   Christian Kollmar      : KDIIS, OOCD, Brueckner-CCSD(T), CCSD density
   Simone Kossmann        : Meta GGA functionals, TD-DFT gradient, OOMP2, MP2 Hessian
   Taras Petrenko         : DFT Hessian,TD-DFT gradient, ASA and ECA modules, normal mode analysis, Resonance Raman, ABS, FL, XAS/XES, NRVS
   Christoph Reimann      : Effective Core Potentials
   Michael Roemelt        : Restricted open shell CIS
   Christoph Riplinger    : Improved optimizer, TS searches, QM/MM, DLPNO-CCSD
   Barbara Sandhoefer     : DKH picture change effects
   Igor Schapiro          : Molecular dynamics
   Kantharuban Sivalingam : CASSCF convergence, NEVPT2
   Boris Wezisla          : Elementary symmetry handling
   Frank Wennmohs         : Technical directorship


 We gratefully acknowledge several colleagues who have allowed us to
 interface, adapt or use parts of their codes:
   Stefan Grimme, W. Hujo, H. Kruse, T. Risthaus : VdW corrections, initial TS optimization,
                                                   DFT functionals, gCP
   Ed Valeev                                     : LibInt (2-el integral package), F12 methods
   Garnet Chan, S. Sharma, R. Olivares           : DMRG
   Ulf Ekstrom                                   : XCFun DFT Library
   Mihaly Kallay                                 : mrcc  (arbitrary order and MRCC methods)
   Andreas Klamt, Michael Diedenhofen            : otool_cosmo (COSMO solvation model)
   Frank Weinhold                                : gennbo (NPA and NBO analysis)
   Christopher J. Cramer and Donald G. Truhlar   : smd solvation model


 Your calculation uses the libint2 library for the computation of 2-el integrals
 For citations please refer to: http://libint.valeyev.net

 This ORCA versions uses:
   CBLAS   interface :  Fast vector & matrix operations
   LAPACKE interface :  Fast linear algebra routines
   SCALAPACK package :  Parallel linear algebra routines


leaving
================================================================================
                                        WARNINGS
                       Please study these warnings very carefully!
================================================================================
Now building the actual basis set

WARNING: Direct SCF is incompatible with Method<>HF and Method<>DFT
  ===> : conventional SCF is chosen

WARNING: The NDO methods need Guess=HUECKEL or Guess=HCORE or Guess=MOREAD
  ===> : Guess is set to Hueckel

WARNING: The NDO methods need %rel::SOCType==1
  ===> : %rel::SOCType is set to 1

WARNING: The NDO methods cannot have frozencore=1
  ===> : %method FrozenCore=0 end


INFO   : the flag for use of LIBINT has been found!

================================================================================
                                       INPUT FILE
================================================================================
NAME = /Users/mattyjones/GoogleDrive/Boise/Code/MorphCT/tests/output_EZ/donor_polymer/chromophores/input_orca/pair/00008-00009.inp
|  1> # ================================================================
|  2> # Orca input file made by Matty Jones
|  3> # ================================================================
|  4> ! ZINDO/S 
|  5> ! NOPOP
|  6> ! NOMOPRINT
|  7> * xyz 0   1
|  8>  C  -2.43659  2.00549  -2.23190
|  9>  C  -3.12121  0.92943  -1.66507
| 10>  C  -2.37017  0.21186  -0.68257
| 11>  C  -1.08603  0.72389  -0.47253
| 12>  S  -0.94937  2.01927  -1.49905
| 13>  H  -4.16890  0.59464  -1.97604
| 14>  C  -2.95143  -1.05240  0.12690
| 15>  C  -3.77418  -2.37364  -0.56641
| 16>  C  -5.46711  -2.39103  -0.73045
| 17>  H  -5.93183  -2.14755  0.29689
| 18>  H  -5.76409  -1.57593  -1.48981
| 19>  H  -3.50572  -3.29259  0.08001
| 20>  H  -3.34004  -2.51275  -1.62553
| 21>  H  -3.68574  -0.65200  0.94777
| 22>  H  -2.07280  -1.57777  0.68156
| 23>  C  -5.97995  -3.85425  -1.24774
| 24>  C  -7.64504  -4.14445  -1.34990
| 25>  C  -8.32469  -4.84240  0.02568
| 26>  H  -9.22358  -5.50164  -0.28744
| 27>  H  -8.68706  -4.00639  0.73887
| 28>  H  -7.53618  -5.49678  0.56269
| 29>  H  -7.82501  -4.86129  -2.23460
| 30>  H  -8.17764  -3.14307  -1.54945
| 31>  H  -5.55057  -4.03665  -2.30833
| 32>  H  -5.54887  -4.66252  -0.53786
| 33>  C  0.02121  0.31373  0.70896
| 34>  C  1.18131  1.07282  0.86976
| 35>  C  2.04271  0.60898  1.91240
| 36>  C  1.56036  -0.52209  2.57826
| 37>  S  0.11383  -0.88362  1.85213
| 38>  H  1.36411  2.03947  0.29596
| 39>  C  3.39492  1.45534  2.14212
| 40>  C  4.21468  1.80422  0.68363
| 41>  C  5.48967  2.90561  0.83939
| 42>  H  5.16448  3.60801  1.70943
| 43>  H  5.43140  3.53457  -0.14174
| 44>  H  4.65005  0.81060  0.29376
| 45>  H  3.47602  2.22992  -0.08550
| 46>  H  3.15992  2.45803  2.66352
| 47>  H  4.13882  0.85434  2.80947
| 48>  C  7.05939  2.55787  1.07074
| 49>  C  7.98502  2.59313  -0.34623
| 50>  C  8.53510  4.14177  -0.73161
| 51>  H  7.70096  4.91143  -0.50608
| 52>  H  8.80306  4.18007  -1.85663
| 53>  H  9.47184  4.38559  -0.09855
| 54>  H  8.90413  1.91631  -0.19013
| 55>  H  7.35054  2.19491  -1.21838
| 56>  H  7.16368  1.50476  1.53427
| 57>  H  7.51645  3.33159  1.80033
| 58>  H  -2.79240  2.67314  -2.97435
| 59>  H  2.02252  -1.03997  3.37939
| 60> *
| 61> 
| 62>                          ****END OF INPUT****
================================================================================

                       ****************************
                       * Single Point Calculation *
                       ****************************

---------------------------------
CARTESIAN COORDINATES (ANGSTROEM)
---------------------------------
  C     -2.436590    2.005490   -2.231900
  C     -3.121210    0.929430   -1.665070
  C     -2.370170    0.211860   -0.682570
  C     -1.086030    0.723890   -0.472530
  S     -0.949370    2.019270   -1.499050
  H     -4.168900    0.594640   -1.976040
  C     -2.951430   -1.052400    0.126900
  C     -3.774180   -2.373640   -0.566410
  C     -5.467110   -2.391030   -0.730450
  H     -5.931830   -2.147550    0.296890
  H     -5.764090   -1.575930   -1.489810
  H     -3.505720   -3.292590    0.080010
  H     -3.340040   -2.512750   -1.625530
  H     -3.685740   -0.652000    0.947770
  H     -2.072800   -1.577770    0.681560
  C     -5.979950   -3.854250   -1.247740
  C     -7.645040   -4.144450   -1.349900
  C     -8.324690   -4.842400    0.025680
  H     -9.223580   -5.501640   -0.287440
  H     -8.687060   -4.006390    0.738870
  H     -7.536180   -5.496780    0.562690
  H     -7.825010   -4.861290   -2.234600
  H     -8.177640   -3.143070   -1.549450
  H     -5.550570   -4.036650   -2.308330
  H     -5.548870   -4.662520   -0.537860
  C      0.021210    0.313730    0.708960
  C      1.181310    1.072820    0.869760
  C      2.042710    0.608980    1.912400
  C      1.560360   -0.522090    2.578260
  S      0.113830   -0.883620    1.852130
  H      1.364110    2.039470    0.295960
  C      3.394920    1.455340    2.142120
  C      4.214680    1.804220    0.683630
  C      5.489670    2.905610    0.839390
  H      5.164480    3.608010    1.709430
  H      5.431400    3.534570   -0.141740
  H      4.650050    0.810600    0.293760
  H      3.476020    2.229920   -0.085500
  H      3.159920    2.458030    2.663520
  H      4.138820    0.854340    2.809470
  C      7.059390    2.557870    1.070740
  C      7.985020    2.593130   -0.346230
  C      8.535100    4.141770   -0.731610
  H      7.700960    4.911430   -0.506080
  H      8.803060    4.180070   -1.856630
  H      9.471840    4.385590   -0.098550
  H      8.904130    1.916310   -0.190130
  H      7.350540    2.194910   -1.218380
  H      7.163680    1.504760    1.534270
  H      7.516450    3.331590    1.800330
  H     -2.792400    2.673140   -2.974350
  H      2.022520   -1.039970    3.379390

----------------------------
CARTESIAN COORDINATES (A.U.)
----------------------------
  NO LB      ZA    FRAG    MASS        X           Y           Z
   0 C     4.0000    0    12.011         -4.604487800651182          3.789826864317731         -4.217679758298842
   1 C     4.0000    0    12.011         -5.898232106456350          1.756368160650429         -3.146526293808259
   2 C     4.0000    0    12.011         -4.478972190836132          0.400357378732556         -1.289870367230629
   3 C     4.0000    0    12.011         -2.052299273222497          1.367953851084255         -0.892952290061809
   4 S     6.0000    0    32.060         -1.794049299760819          3.815867290443166         -2.832793961054652
   5 H     1.0000    0     1.008         -7.878079279704306          1.123706748274933         -3.734174429673750
   6 C     4.0000    0    12.011         -5.577394403439200         -1.988747783338725          0.239806246394607
   7 C     4.0000    0    12.011         -7.132166580122909         -4.485529540520839         -1.070359779514336
   8 C     4.0000    0    12.011        -10.331340644022214         -4.518391877989731         -1.380350454522778
   9 H     1.0000    0     1.008        -11.209534172978097         -4.058281358902584          0.561040791899880
  10 H     1.0000    0     1.008        -10.892551511274148         -2.978076106230518         -2.815332891577220
  11 H     1.0000    0     1.008         -6.624850702210411         -6.222093371287774          0.151196987975039
  12 H     1.0000    0     1.008         -6.311760876342338         -4.748409343010625         -3.071806522473012
  13 H     1.0000    0     1.008         -6.965039200838914         -1.232101439316656          1.791025737946545
  14 H     1.0000    0     1.008         -3.917024330391970         -2.981553202316933          1.287961743835368
  15 C     4.0000    0    12.011        -11.300467794542389         -7.283476951665985         -2.357886886338903
  16 C     4.0000    0    12.011        -14.447031882873326         -7.831875475729931         -2.550941308180298
  17 C     4.0000    0    12.011        -15.731384249792905         -9.150809830900268          0.048528167119098
  18 H     1.0000    0     1.008        -17.430040174313380        -10.396592887426515         -0.543182879934325
  19 H     1.0000    0     1.008        -16.416164308941951         -7.570979885680763          1.396261948570395
  20 H     1.0000    0     1.008        -14.241316295934658        -10.387408818415658          1.063329998296149
  21 H     1.0000    0     1.008        -14.787125895195134         -9.186506757570042         -4.222782018860428
  22 H     1.0000    0     1.008        -15.453500021799785         -5.939541519743868         -2.928036158204284
  23 H     1.0000    0     1.008        -10.489057187159281         -7.628162998493220         -4.362111526714443
  24 H     1.0000    0     1.008        -10.485844652731616         -8.810885893930514         -1.016408098390885
  25 C     4.0000    0    12.011          0.040081091300470          0.592863779995114          1.339740239904811
  26 C     4.0000    0    12.011          2.232352379262514          2.027335990993397          1.643608202239348
  27 C     4.0000    0    12.011          3.860162471022280          1.150805421035364          3.613912258511002
  28 C     4.0000    0    12.011          2.948653070325364         -0.986607117258946          4.872205302043807
  29 S     6.0000    0    32.060          0.215107525824256         -1.669799806455496          3.500018464419568
  30 H     1.0000    0     1.008          2.577794316543319          3.854039758348375          0.559283346595334
  31 C     4.0000    0    12.011          6.415469046571936          2.750194031740954          4.048020145995391
  32 C     4.0000    0    12.011          7.964590942115222          3.409481685343401          1.291873476932585
  33 C     4.0000    0    12.011         10.373972865603479          5.490807151982928          1.586217219552159
  34 H     1.0000    0     1.008          9.759452824113627          6.818150788449215          3.230354545109005
  35 H     1.0000    0     1.008         10.263858523779886          6.679369301174038         -0.267849782221998
  36 H     1.0000    0     1.008          8.787321009040516          1.531812004156567          0.555125949100707
  37 H     1.0000    0     1.008          6.568725836032949          4.213938100553677         -0.161571584450267
  38 H     1.0000    0     1.008          5.971383405100442          4.645003528962454          5.033323352221933
  39 H     1.0000    0     1.008          7.821236317595955          1.614468625254282          5.309128881467739
  40 C     4.0000    0    12.011         13.340313772542345          4.833673786173152          2.023405360634841
  41 C     4.0000    0    12.011         15.089500973883872          4.900305529655215         -0.654279879347555
  42 C     4.0000    0    12.011         16.129001525631274          7.826811009691022         -1.382542536838127
  43 H     1.0000    0     1.008         14.552705368282203          9.281257625924853         -0.956352601854867
  44 H     1.0000    0     1.008         16.635372540476816          7.899187520620206         -3.508522232022214
  45 H     1.0000    0     1.008         17.899183584320667          8.287564035663701         -0.186232510497939
  46 H     1.0000    0     1.008         16.826367160832234          3.621301087694634         -0.359293629842448
  47 H     1.0000    0     1.008         13.890507536433516          4.147778788605095         -2.302404527046975
  48 H     1.0000    0     1.008         13.537393311048993          2.843584297279343          2.899350115491359
  49 H     1.0000    0     1.008         14.204031999312392          6.295792690510702          3.402130650682447
  50 H     1.0000    0     1.008         -5.276871256361703          5.051502517630254         -5.620706926428674
  51 H     1.0000    0     1.008          3.822008900378410         -1.965258487494084          6.386121599712139

--------------------------------
INTERNAL COORDINATES (ANGSTROEM)
--------------------------------
 C      0   0   0   0.000000     0.000     0.000
 C      1   0   0   1.395674     0.000     0.000
 C      2   1   0   1.429781   114.102     0.000
 C      3   2   1   1.398323   113.693     0.000
 S      1   2   3   1.658036   105.479     0.000
 H      2   1   3   1.142997   124.400   183.013
 C      3   2   1   1.609801   123.368   179.033
 C      7   3   2   1.703899   125.361    47.242
 C      8   7   3   1.700948   121.854   268.885
 H      9   8   7   1.153549   108.235   307.999
 H      9   8   7   1.152915   108.220    66.567
 H      8   7   3   1.155162   106.078   147.644
 H      8   7   3   1.153067   106.588    31.235
 H      7   3   2   1.171904   108.068   283.835
 H      7   3   2   1.164325   108.750   167.950
 C      9   8   7   1.634505   110.607   187.249
 C     16   9   8   1.693274   118.754   174.619
 C     17  16   9   1.685609   114.723   267.285
 H     18  17  16   1.157862   109.153   210.400
 H     18  17  16   1.157093   109.275    90.594
 H     18  17  16   1.156867   109.768   330.332
 H     17  16   9   1.152798   107.842   147.157
 H     17  16   9   1.151627   108.434    28.549
 H     16   9   8   1.158658   108.321   296.004
 H     16   9   8   1.158905   108.288    53.182
 C      4   3   2   1.670368   128.688   171.171
 C     26   4   3   1.395674   119.929   189.113
 C     27  26   4   1.429775   114.101   180.219
 C     28  27  26   1.398338   113.693     0.000
 S     26   4   3   1.658030   134.591     9.409
 H     27  26   4   1.138892   122.480     6.553
 C     28  27  26   1.611697   116.043   180.201
 C     32  28  27   1.709069   112.830   313.490
 C     33  32  28   1.692017   114.567   170.141
 H     34  33  32   1.164510   104.535   328.764
 H     34  33  32   1.166877   103.641   217.031
 H     33  32  28   1.152747   107.087   289.769
 H     33  32  28   1.148216   109.801    48.734
 H     32  28  27   1.154327   110.471    74.241
 H     32  28  27   1.166166   110.251   194.288
 C     34  33  32   1.624336   127.010    93.791
 C     41  34  33   1.692879   113.874    98.259
 C     42  41  34   1.688014   112.854    85.154
 H     43  42  41   1.157165   109.318   320.592
 H     43  42  41   1.157126   109.135   200.810
 H     43  42  41   1.156588   109.413    80.730
 H     42  41  34   1.152048   108.094   204.596
 H     42  41  34   1.149691   109.026   323.973
 H     41  34  33   1.155326   109.848   337.270
 H     41  34  33   1.157518   109.163   218.161
 H      1   2   3   1.059995   127.260   180.000
 H     29  28  27   1.060000   127.206   180.000

---------------------------
INTERNAL COORDINATES (A.U.)
---------------------------
 C      0   0   0   0.000000     0.000     0.000
 C      1   0   0   2.637442     0.000     0.000
 C      2   1   0   2.701895   114.102     0.000
 C      3   2   1   2.642447   113.693     0.000
 S      1   2   3   3.133233   105.479     0.000
 H      2   1   3   2.159950   124.400   183.013
 C      3   2   1   3.042082   123.368   179.033
 C      7   3   2   3.219902   125.361    47.242
 C      8   7   3   3.214326   121.854   268.885
 H      9   8   7   2.179891   108.235   307.999
 H      9   8   7   2.178693   108.220    66.567
 H      8   7   3   2.182939   106.078   147.644
 H      8   7   3   2.178981   106.588    31.235
 H      7   3   2   2.214578   108.068   283.835
 H      7   3   2   2.200255   108.750   167.950
 C      9   8   7   3.088767   110.607   187.249
 C     16   9   8   3.199824   118.754   174.619
 C     17  16   9   3.185340   114.723   267.285
 H     18  17  16   2.188042   109.153   210.400
 H     18  17  16   2.186589   109.275    90.594
 H     18  17  16   2.186162   109.768   330.332
 H     17  16   9   2.178472   107.842   147.157
 H     17  16   9   2.176260   108.434    28.549
 H     16   9   8   2.189546   108.321   296.004
 H     16   9   8   2.190012   108.288    53.182
 C      4   3   2   3.156539   128.688   171.171
 C     26   4   3   2.637442   119.929   189.113
 C     27  26   4   2.701883   114.101   180.219
 C     28  27  26   2.642477   113.693     0.000
 S     26   4   3   3.133222   134.591     9.409
 H     27  26   4   2.152194   122.480     6.553
 C     28  27  26   3.045667   116.043   180.201
 C     32  28  27   3.229672   112.830   313.490
 C     33  32  28   3.197448   114.567   170.141
 H     34  33  32   2.200605   104.535   328.764
 H     34  33  32   2.205078   103.641   217.031
 H     33  32  28   2.178377   107.087   289.769
 H     33  32  28   2.169814   109.801    48.734
 H     32  28  27   2.181361   110.471    74.241
 H     32  28  27   2.203735   110.251   194.288
 C     34  33  32   3.069550   127.010    93.791
 C     41  34  33   3.199077   113.874    98.259
 C     42  41  34   3.189884   112.854    85.154
 H     43  42  41   2.186724   109.318   320.592
 H     43  42  41   2.186650   109.135   200.810
 H     43  42  41   2.185634   109.413    80.730
 H     42  41  34   2.177056   108.094   204.596
 H     42  41  34   2.172601   109.026   323.973
 H     41  34  33   2.183249   109.848   337.270
 H     41  34  33   2.187392   109.163   218.161
 H      1   2   3   2.003100   127.260   180.000
 H     29  28  27   2.003110   127.206   180.000

----------------------------
SLATER BASIS SET DIM= 118
----------------------------
  0 C     2 shells
 l=0 nsto= 1
    2       1.625000000000        1.000000000000
 l=1 nsto= 1
    2       1.625000000000        1.000000000000
  1 C     2 shells
 l=0 nsto= 1
    2       1.625000000000        1.000000000000
 l=1 nsto= 1
    2       1.625000000000        1.000000000000
  2 C     2 shells
 l=0 nsto= 1
    2       1.625000000000        1.000000000000
 l=1 nsto= 1
    2       1.625000000000        1.000000000000
  3 C     2 shells
 l=0 nsto= 1
    2       1.625000000000        1.000000000000
 l=1 nsto= 1
    2       1.625000000000        1.000000000000
  4 S     2 shells
 l=0 nsto= 1
    3       1.925000000000        1.000000000000
 l=1 nsto= 1
    3       1.925000000000        1.000000000000
  5 H     1 shells
 l=0 nsto= 1
    1       1.200000000000        1.000000000000
  6 C     2 shells
 l=0 nsto= 1
    2       1.625000000000        1.000000000000
 l=1 nsto= 1
    2       1.625000000000        1.000000000000
  7 C     2 shells
 l=0 nsto= 1
    2       1.625000000000        1.000000000000
 l=1 nsto= 1
    2       1.625000000000        1.000000000000
  8 C     2 shells
 l=0 nsto= 1
    2       1.625000000000        1.000000000000
 l=1 nsto= 1
    2       1.625000000000        1.000000000000
  9 H     1 shells
 l=0 nsto= 1
    1       1.200000000000        1.000000000000
 10 H     1 shells
 l=0 nsto= 1
    1       1.200000000000        1.000000000000
 11 H     1 shells
 l=0 nsto= 1
    1       1.200000000000        1.000000000000
 12 H     1 shells
 l=0 nsto= 1
    1       1.200000000000        1.000000000000
 13 H     1 shells
 l=0 nsto= 1
    1       1.200000000000        1.000000000000
 14 H     1 shells
 l=0 nsto= 1
    1       1.200000000000        1.000000000000
 15 C     2 shells
 l=0 nsto= 1
    2       1.625000000000        1.000000000000
 l=1 nsto= 1
    2       1.625000000000        1.000000000000
 16 C     2 shells
 l=0 nsto= 1
    2       1.625000000000        1.000000000000
 l=1 nsto= 1
    2       1.625000000000        1.000000000000
 17 C     2 shells
 l=0 nsto= 1
    2       1.625000000000        1.000000000000
 l=1 nsto= 1
    2       1.625000000000        1.000000000000
 18 H     1 shells
 l=0 nsto= 1
    1       1.200000000000        1.000000000000
 19 H     1 shells
 l=0 nsto= 1
    1       1.200000000000        1.000000000000
 20 H     1 shells
 l=0 nsto= 1
    1       1.200000000000        1.000000000000
 21 H     1 shells
 l=0 nsto= 1
    1       1.200000000000        1.000000000000
 22 H     1 shells
 l=0 nsto= 1
    1       1.200000000000        1.000000000000
 23 H     1 shells
 l=0 nsto= 1
    1       1.200000000000        1.000000000000
 24 H     1 shells
 l=0 nsto= 1
    1       1.200000000000        1.000000000000
 25 C     2 shells
 l=0 nsto= 1
    2       1.625000000000        1.000000000000
 l=1 nsto= 1
    2       1.625000000000        1.000000000000
 26 C     2 shells
 l=0 nsto= 1
    2       1.625000000000        1.000000000000
 l=1 nsto= 1
    2       1.625000000000        1.000000000000
 27 C     2 shells
 l=0 nsto= 1
    2       1.625000000000        1.000000000000
 l=1 nsto= 1
    2       1.625000000000        1.000000000000
 28 C     2 shells
 l=0 nsto= 1
    2       1.625000000000        1.000000000000
 l=1 nsto= 1
    2       1.625000000000        1.000000000000
 29 S     2 shells
 l=0 nsto= 1
    3       1.925000000000        1.000000000000
 l=1 nsto= 1
    3       1.925000000000        1.000000000000
 30 H     1 shells
 l=0 nsto= 1
    1       1.200000000000        1.000000000000
 31 C     2 shells
 l=0 nsto= 1
    2       1.625000000000        1.000000000000
 l=1 nsto= 1
    2       1.625000000000        1.000000000000
 32 C     2 shells
 l=0 nsto= 1
    2       1.625000000000        1.000000000000
 l=1 nsto= 1
    2       1.625000000000        1.000000000000
 33 C     2 shells
 l=0 nsto= 1
    2       1.625000000000        1.000000000000
 l=1 nsto= 1
    2       1.625000000000        1.000000000000
 34 H     1 shells
 l=0 nsto= 1
    1       1.200000000000        1.000000000000
 35 H     1 shells
 l=0 nsto= 1
    1       1.200000000000        1.000000000000
 36 H     1 shells
 l=0 nsto= 1
    1       1.200000000000        1.000000000000
 37 H     1 shells
 l=0 nsto= 1
    1       1.200000000000        1.000000000000
 38 H     1 shells
 l=0 nsto= 1
    1       1.200000000000        1.000000000000
 39 H     1 shells
 l=0 nsto= 1
    1       1.200000000000        1.000000000000
 40 C     2 shells
 l=0 nsto= 1
    2       1.625000000000        1.000000000000
 l=1 nsto= 1
    2       1.625000000000        1.000000000000
 41 C     2 shells
 l=0 nsto= 1
    2       1.625000000000        1.000000000000
 l=1 nsto= 1
    2       1.625000000000        1.000000000000
 42 C     2 shells
 l=0 nsto= 1
    2       1.625000000000        1.000000000000
 l=1 nsto= 1
    2       1.625000000000        1.000000000000
 43 H     1 shells
 l=0 nsto= 1
    1       1.200000000000        1.000000000000
 44 H     1 shells
 l=0 nsto= 1
    1       1.200000000000        1.000000000000
 45 H     1 shells
 l=0 nsto= 1
    1       1.200000000000        1.000000000000
 46 H     1 shells
 l=0 nsto= 1
    1       1.200000000000        1.000000000000
 47 H     1 shells
 l=0 nsto= 1
    1       1.200000000000        1.000000000000
 48 H     1 shells
 l=0 nsto= 1
    1       1.200000000000        1.000000000000
 49 H     1 shells
 l=0 nsto= 1
    1       1.200000000000        1.000000000000
 50 H     1 shells
 l=0 nsto= 1
    1       1.200000000000        1.000000000000
 51 H     1 shells
 l=0 nsto= 1
    1       1.200000000000        1.000000000000
------------------------------------------------------------------------------
                           ORCA NDO INTEGRAL CALCULATION
------------------------------------------------------------------------------

--------------
NDO PARAMETERS
--------------

Gamma integral treatment              ... Mataga-Nishimoto
Nuclear repulsuion treatment          ... Direct (ZA*ZB/RAB)
Interaction factors:
s-s (sigma) =    1.0000
s-p (sigma) =    1.0000
s-d (sigma) =    1.0000
p-p (sigma) =    1.2670  p-p(pi) =    0.5850
p-d (sigma) =    1.0000  p-d(pi) =    1.0000
d-d (sigma) =    1.0000  d-d(pi) =    1.0000 d-d (delta) =    1.0000

fGamma parameter for Mataga-Nishimoto gamma integrals:    1.2000

--------------------------
Parameters for Element H :
--------------------------
 One-electron parameters (in eV)
  U(s)  =   -13.060000 Beta(s) =    12.000000 Neff(s) =     1.000000
 One-center electron repulsion parameters (in eV)
  G(s,s)=    12.850000
--------------------------
Parameters for Element C :
--------------------------
 One-electron parameters (in eV)
  U(s)  =   -50.870766 Beta(s) =    17.000000 Neff(s) =     2.000000
  U(p)  =   -41.599980 Beta(p) =    17.000000 Neff(p) =     2.000000 
 One-center electron repulsion parameters (in eV)
  G(s,s)=    11.110000
  G(s,p)=    11.110000 G(p,p)  =    11.110000
 Slater-Condon parameters (in eV)
 F2(p,p)=     4.5098 G1(s,p)=    6.8977
--------------------------
Parameters for Element S :
--------------------------
 One-electron parameters (in eV)
  U(s)  =   -69.509597 Beta(s) =    15.000000 Neff(s) =     2.000000
  U(p)  =   -60.725746 Beta(p) =    15.000000 Neff(p) =     4.000000 
 One-center electron repulsion parameters (in eV)
  G(s,s)=    10.090000
  G(s,p)=    10.090000 G(p,p)  =    10.090000
 Slater-Condon parameters (in eV)
 F2(p,p)=     4.5377 G1(s,p)=    3.0756

 Number of atoms                    ....   52
 Number of basis functions          ....  118

 Overlap integrals                  .... done
 One electron matrix                .... done
 Nuclear repulsion                  .... done
 Integral list                      .... done
 Electron-electron repulsion        .... done
-------------------------------------------------------------------------------
                                 ORCA SCF
-------------------------------------------------------------------------------

------------
SCF SETTINGS
------------
Hamiltonian:
 ZDO-Hamiltonian        Method          .... INDO


General Settings:
 Integral files         IntName         .... /Users/mattyjones/GoogleDrive/Boise/Code/MorphCT/tests/output_EZ/donor_polymer/chromophores/input_orca/pair/00008-00009
 Hartree-Fock type      HFTyp           .... RHF
 Total Charge           Charge          ....    0
 Multiplicity           Mult            ....    1
 Number of Electrons    NEL             ....  122
 Basis Dimension        Dim             ....  118
 Nuclear Repulsion      ENuc            ....    815.9884419769 Eh

Convergence Acceleration:
 DIIS                   CNVDIIS         .... on
   Start iteration      DIISMaxIt       ....    12
   Startup error        DIISStart       ....  0.200000
   # of expansion vecs  DIISMaxEq       ....     5
   Bias factor          DIISBfac        ....   1.050
   Max. coefficient     DIISMaxC        ....  10.000
 Newton-Raphson         CNVNR           .... off
 SOSCF                  CNVSOSCF        .... on
   Start iteration      SOSCFMaxIt      ....   150
   Startup grad/error   SOSCFStart      ....  0.003300
 Level Shifting         CNVShift        .... on
   Level shift para.    LevelShift      ....    0.2500
   Turn off err/grad.   ShiftErr        ....    0.0010
 Zerner damping         CNVZerner       .... off
 Static damping         CNVDamp         .... on
   Fraction old density DampFac         ....    0.7000
   Max. Damping (<1)    DampMax         ....    0.9800
   Min. Damping (>=0)   DampMin         ....    0.0000
   Turn off err/grad.   DampErr         ....    0.1000
 Fernandez-Rico         CNVRico         .... off

SCF Procedure:
 Maximum # iterations   MaxIter         ....   125
 SCF integral mode      SCFMode         .... Conventional
 Integral Buffer length BufferLength    .... 1048576
 Integral index format  IndFormat       ....     0
 Integral value format  ValFormat       ....     0
 Integral Storage       Thresh          ....  1.000e-08 Eh

Convergence Tolerance:
 Convergence Check Mode ConvCheckMode   .... Total+1el-Energy
 Energy Change          TolE            ....  1.000e-06 Eh
 1-El. energy change                    ....  1.000e-03 Eh
 Orbital Gradient       TolG            ....  5.000e-05
 Orbital Rotation angle TolX            ....  5.000e-05
 DIIS Error             TolErr          ....  1.000e-06


Diagonalization of the overlap matrix:
Smallest eigenvalue                        ... 1.673e-01
Time for diagonalization                   ...    0.003 sec
Threshold for overlap eigenvalues          ... 1.000e-08
Number of eigenvalues below threshold      ... 0
Time for construction of square roots      ...    0.001 sec
Total time needed                          ...    0.004 sec

-------------------------------
INITIAL GUESS: EXTENDED HUECKEL
-------------------------------
EHT matrix was read from disk
EHT matrix was diagonalized
Initial density was built
                      ------------------
                      INITIAL GUESS DONE
                      ------------------

 InCore treatment chosen:
   Memory dedicated               ...    1024 MB
   Memory needed                  ...      0 MB
   Number of tiny    integrals    ...       0
   Number of small   integrals    ...       0
   Number of regular integrals    ...    7153

--------------
SCF ITERATIONS
--------------
ITER       Energy         Delta-E        Max-DP      RMS-DP      [F,P]     Damp
  0     -8.4541540284   0.000000000000 0.03762513  0.00142870  0.0919871 0.7000
  1     -8.4939625107  -0.039808482280 0.03480183  0.00135054  0.0654880 0.7000
                               ***Turning on DIIS***
  2     -8.5237443762  -0.029781865507 0.08616017  0.00349266  0.0430905 0.0000
  3     -8.6050538800  -0.081309503858 0.01559173  0.00074872  0.0174926 0.0000
  4     -8.5836556332   0.021398246872 0.00919205  0.00051672  0.0054503 0.0000
  5     -8.6019675635  -0.018311930363 0.00624097  0.00034462  0.0031167 0.0000
  6     -8.6056080072  -0.003640443719 0.00478573  0.00025079  0.0016919 0.0000
                      *** Initiating the SOSCF procedure ***
                           *** Shutting down DIIS ***
                      *** Re-Reading the Fockian *** 
                      *** Removing any level shift *** 
ITER      Energy       Delta-E        Grad      Rot      Max-DP    RMS-DP
  7     -8.60244827   0.0031597341  0.003220  0.003220  0.004962  0.000246
  8     -8.60203933   0.0004089459  0.000291  0.000804  0.000597  0.000028
  9     -8.60204166  -0.0000023293  0.000150  0.000699  0.000596  0.000026
                 **** Energy Check signals convergence ****
              ***Rediagonalizing the Fockian in SOSCF/NRSCF***

               *****************************************************
               *                     SUCCESS                       *
               *           SCF CONVERGED AFTER  10 CYCLES          *
               *****************************************************


----------------
TOTAL SCF ENERGY
----------------

Total Energy       :           -8.60204254 Eh            -234.07348 eV

Components:
Nuclear Repulsion  :          815.98844198 Eh           22204.17434 eV
Electronic Energy  :         -824.59048451 Eh          -22438.24782 eV

One Electron Energy:        -1560.18302585 Eh          -42454.73849 eV
Two Electron Energy:          735.59254134 Eh           20016.49067 eV


---------------
SCF CONVERGENCE
---------------

  Last Energy change         ...   -8.8135e-07  Tolerance :   1.0000e-06
  Last MAX-Density change    ...    3.6832e-05  Tolerance :   1.0000e-05
  Last RMS-Density change    ...    2.1527e-06  Tolerance :   1.0000e-06
  Last Orbital Gradient      ...    1.6631e-05  Tolerance :   5.0000e-05
  Last Orbital Rotation      ...    3.7347e-05  Tolerance :   5.0000e-05

             **** THE GBW FILE WAS UPDATED (/Users/mattyjones/GoogleDrive/Boise/Code/MorphCT/tests/output_EZ/donor_polymer/chromophores/input_orca/pair/00008-00009.gbw) ****
             **** DENSITY FILE WAS UPDATED (/Users/mattyjones/GoogleDrive/Boise/Code/MorphCT/tests/output_EZ/donor_polymer/chromophores/input_orca/pair/00008-00009.scfp.tmp) ****
             **** ENERGY FILE WAS UPDATED (/Users/mattyjones/GoogleDrive/Boise/Code/MorphCT/tests/output_EZ/donor_polymer/chromophores/input_orca/pair/00008-00009.en.tmp) ****
----------------
ORBITAL ENERGIES
----------------

  NO   OCC          E(Eh)            E(eV) 
   0   2.0000      -1.569802       -42.7165 
   1   2.0000      -1.542677       -41.9784 
   2   2.0000      -1.400079       -38.0981 
   3   2.0000      -1.396305       -37.9954 
   4   2.0000      -1.299530       -35.3620 
   5   2.0000      -1.290940       -35.1283 
   6   2.0000      -1.201667       -32.6990 
   7   2.0000      -1.170476       -31.8503 
   8   2.0000      -1.147063       -31.2132 
   9   2.0000      -1.072178       -29.1754 
  10   2.0000      -1.038574       -28.2610 
  11   2.0000      -1.026399       -27.9297 
  12   2.0000      -0.971930       -26.4476 
  13   2.0000      -0.942247       -25.6399 
  14   2.0000      -0.922059       -25.0905 
  15   2.0000      -0.886179       -24.1141 
  16   2.0000      -0.872168       -23.7329 
  17   2.0000      -0.865455       -23.5502 
  18   2.0000      -0.838668       -22.8213 
  19   2.0000      -0.802520       -21.8377 
  20   2.0000      -0.763886       -20.7864 
  21   2.0000      -0.747909       -20.3516 
  22   2.0000      -0.720175       -19.5970 
  23   2.0000      -0.699927       -19.0460 
  24   2.0000      -0.687708       -18.7135 
  25   2.0000      -0.679500       -18.4901 
  26   2.0000      -0.676681       -18.4134 
  27   2.0000      -0.667716       -18.1695 
  28   2.0000      -0.648467       -17.6457 
  29   2.0000      -0.640316       -17.4239 
  30   2.0000      -0.620688       -16.8898 
  31   2.0000      -0.612485       -16.6666 
  32   2.0000      -0.588990       -16.0272 
  33   2.0000      -0.579716       -15.7749 
  34   2.0000      -0.568622       -15.4730 
  35   2.0000      -0.567193       -15.4341 
  36   2.0000      -0.561448       -15.2778 
  37   2.0000      -0.557123       -15.1601 
  38   2.0000      -0.553019       -15.0484 
  39   2.0000      -0.534627       -14.5479 
  40   2.0000      -0.532461       -14.4890 
  41   2.0000      -0.524079       -14.2609 
  42   2.0000      -0.520543       -14.1647 
  43   2.0000      -0.514949       -14.0125 
  44   2.0000      -0.503307       -13.6957 
  45   2.0000      -0.494865       -13.4660 
  46   2.0000      -0.492185       -13.3930 
  47   2.0000      -0.489761       -13.3271 
  48   2.0000      -0.486493       -13.2382 
  49   2.0000      -0.483589       -13.1591 
  50   2.0000      -0.471158       -12.8209 
  51   2.0000      -0.469196       -12.7675 
  52   2.0000      -0.462928       -12.5969 
  53   2.0000      -0.459195       -12.4953 
  54   2.0000      -0.456590       -12.4245 
  55   2.0000      -0.442335       -12.0365 
  56   2.0000      -0.432612       -11.7720 
  57   2.0000      -0.362014        -9.8509 
  58   2.0000      -0.357624        -9.7314 
  59   2.0000      -0.330281        -8.9874 
  60   2.0000      -0.279566        -7.6074 
  61   0.0000      -0.012435        -0.3384 
  62   0.0000       0.023200         0.6313 
  63   0.0000       0.039317         1.0699 
  64   0.0000       0.064913         1.7664 
  65   0.0000       0.071169         1.9366 
  66   0.0000       0.074333         2.0227 
  67   0.0000       0.082450         2.2436 
  68   0.0000       0.089970         2.4482 
  69   0.0000       0.090366         2.4590 
  70   0.0000       0.103035         2.8037 
  71   0.0000       0.105467         2.8699 
  72   0.0000       0.117674         3.2021 
  73   0.0000       0.122397         3.3306 
  74   0.0000       0.133132         3.6227 
  75   0.0000       0.140213         3.8154 
  76   0.0000       0.146034         3.9738 
  77   0.0000       0.153064         4.1651 
  78   0.0000       0.159555         4.3417 
  79   0.0000       0.162571         4.4238 
  80   0.0000       0.169207         4.6044 
  81   0.0000       0.172066         4.6821 
  82   0.0000       0.184681         5.0254 
  83   0.0000       0.203664         5.5420 
  84   0.0000       0.210109         5.7173 
  85   0.0000       0.233752         6.3607 
  86   0.0000       0.234188         6.3726 
  87   0.0000       0.234631         6.3846 
  88   0.0000       0.236240         6.4284 
  89   0.0000       0.237567         6.4645 
  90   0.0000       0.238449         6.4885 
  91   0.0000       0.239186         6.5086 
  92   0.0000       0.240249         6.5375 
  93   0.0000       0.241339         6.5672 
  94   0.0000       0.242406         6.5962 
  95   0.0000       0.242956         6.6112 
  96   0.0000       0.243428         6.6240 
  97   0.0000       0.243757         6.6330 
  98   0.0000       0.246268         6.7013 
  99   0.0000       0.247720         6.7408 
 100   0.0000       0.248837         6.7712 
 101   0.0000       0.257669         7.0115 
 102   0.0000       0.265731         7.2309 
 103   0.0000       0.272647         7.4191 
 104   0.0000       0.278087         7.5671 
 105   0.0000       0.283266         7.7081 
 106   0.0000       0.290203         7.8968 
 107   0.0000       0.298521         8.1232 
 108   0.0000       0.302832         8.2405 
 109   0.0000       0.330633         8.9970 
 110   0.0000       0.339649         9.2423 
 111   0.0000       0.340276         9.2594 
 112   0.0000       0.354339         9.6421 
 113   0.0000       0.356843         9.7102 
 114   0.0000       0.394090        10.7237 
 115   0.0000       0.419773        11.4226 
 116   0.0000       0.429296        11.6817 
 117   0.0000       0.460434        12.5290 
-------
TIMINGS
-------

Total SCF time: 0 days 0 hours 0 min 0 sec 

Total time                  ....       0.128 sec
Sum of individual times     ....       0.103 sec  ( 80.1%)

Fock matrix formation       ....       0.048 sec  ( 37.7%)
Diagonalization             ....       0.024 sec  ( 19.0%)
Density matrix formation    ....       0.007 sec  (  5.6%)
Population analysis         ....       0.000 sec  (  0.0%)
Initial guess               ....       0.003 sec  (  2.1%)
Orbital Transformation      ....       0.000 sec  (  0.0%)
Orbital Orthonormalization  ....       0.000 sec  (  0.0%)
DIIS solution               ....       0.016 sec  ( 12.6%)
SOSCF solution              ....       0.004 sec  (  3.2%)

-------------------------   --------------------
FINAL SINGLE POINT ENERGY        -8.602042537819
-------------------------   --------------------


                            ***************************************
                            *     ORCA property calculations      *
                            ***************************************

                                    ---------------------
                                    Active property flags
                                    ---------------------
   (+) Dipole Moment


------------------------------------------------------------------------------
                       ORCA ELECTRIC PROPERTIES CALCULATION
------------------------------------------------------------------------------

Dipole Moment Calculation                       ... on
Quadrupole Moment Calculation                   ... off
Polarizability Calculation                      ... off
GBWName                                         ... /Users/mattyjones/GoogleDrive/Boise/Code/MorphCT/tests/output_EZ/donor_polymer/chromophores/input_orca/pair/00008-00009.gbw
Electron density file                           ... /Users/mattyjones/GoogleDrive/Boise/Code/MorphCT/tests/output_EZ/donor_polymer/chromophores/input_orca/pair/00008-00009.scfp.tmp

-------------
DIPOLE MOMENT
-------------
                                X             Y             Z
Electronic contribution:    -24.37043      32.32751      10.88780
Nuclear contribution   :     13.18102     -17.66924      -6.00390
                        -----------------------------------------
Total Dipole Moment    :    -11.18942      14.65828       4.88391
                        -----------------------------------------
Magnitude (a.u.)       :     19.07670
Magnitude (Debye)      :     48.48913


Timings for individual modules:

Sum of individual times         ...        0.214 sec (=   0.004 min)
STO integral calculation        ...        0.049 sec (=   0.001 min)  22.8 %
SCF iterations                  ...        0.166 sec (=   0.003 min)  77.2 %
                             ****ORCA TERMINATED NORMALLY****
TOTAL RUN TIME: 0 days 0 hours 0 minutes 0 seconds 527 msec

