
                                 *****************
                                 * O   R   C   A *
                                 *****************

           --- An Ab Initio, DFT and Semiempirical electronic structure package ---

                  #######################################################
                  #                        -***-                        #
                  #  Department of molecular theory and spectroscopy    #
                  #              Directorship: Frank Neese              #
                  # Max Planck Institute for Chemical Energy Conversion #
                  #                  D-45470 Muelheim/Ruhr              #
                  #                       Germany                       #
                  #                                                     #
                  #                  All rights reserved                #
                  #                        -***-                        #
                  #######################################################


                         Program Version 3.0.3 - RELEASE   -


 With contributions from (in alphabetic order):
   Ute Becker             : Parallelization
   Dmytro Bykov           : SCF Hessian
   Dmitry Ganyushin       : Spin-Orbit,Spin-Spin,Magnetic field MRCI
   Andreas Hansen         : Spin unrestricted coupled pair/coupled cluster methods
   Dimitrios Liakos       : Extrapolation schemes; parallel MDCI
   Robert Izsak           : Overlap fitted RIJCOSX, COSX-SCS-MP3
   Christian Kollmar      : KDIIS, OOCD, Brueckner-CCSD(T), CCSD density
   Simone Kossmann        : Meta GGA functionals, TD-DFT gradient, OOMP2, MP2 Hessian
   Taras Petrenko         : DFT Hessian,TD-DFT gradient, ASA and ECA modules, normal mode analysis, Resonance Raman, ABS, FL, XAS/XES, NRVS
   Christoph Reimann      : Effective Core Potentials
   Michael Roemelt        : Restricted open shell CIS
   Christoph Riplinger    : Improved optimizer, TS searches, QM/MM, DLPNO-CCSD
   Barbara Sandhoefer     : DKH picture change effects
   Igor Schapiro          : Molecular dynamics
   Kantharuban Sivalingam : CASSCF convergence, NEVPT2
   Boris Wezisla          : Elementary symmetry handling
   Frank Wennmohs         : Technical directorship


 We gratefully acknowledge several colleagues who have allowed us to
 interface, adapt or use parts of their codes:
   Stefan Grimme, W. Hujo, H. Kruse, T. Risthaus : VdW corrections, initial TS optimization,
                                                   DFT functionals, gCP
   Ed Valeev                                     : LibInt (2-el integral package), F12 methods
   Garnet Chan, S. Sharma, R. Olivares           : DMRG
   Ulf Ekstrom                                   : XCFun DFT Library
   Mihaly Kallay                                 : mrcc  (arbitrary order and MRCC methods)
   Andreas Klamt, Michael Diedenhofen            : otool_cosmo (COSMO solvation model)
   Frank Weinhold                                : gennbo (NPA and NBO analysis)
   Christopher J. Cramer and Donald G. Truhlar   : smd solvation model


 Your calculation uses the libint2 library for the computation of 2-el integrals
 For citations please refer to: http://libint.valeyev.net

 This ORCA versions uses:
   CBLAS   interface :  Fast vector & matrix operations
   LAPACKE interface :  Fast linear algebra routines
   SCALAPACK package :  Parallel linear algebra routines


leaving
================================================================================
                                        WARNINGS
                       Please study these warnings very carefully!
================================================================================
Now building the actual basis set

WARNING: Direct SCF is incompatible with Method<>HF and Method<>DFT
  ===> : conventional SCF is chosen

WARNING: The NDO methods need Guess=HUECKEL or Guess=HCORE or Guess=MOREAD
  ===> : Guess is set to Hueckel

WARNING: The NDO methods need %rel::SOCType==1
  ===> : %rel::SOCType is set to 1

WARNING: The NDO methods cannot have frozencore=1
  ===> : %method FrozenCore=0 end


INFO   : the flag for use of LIBINT has been found!

================================================================================
                                       INPUT FILE
================================================================================
NAME = /Users/mattyjones/GoogleDrive/Boise/Code/MorphCT/tests/output_EZ/donor_polymer/chromophores/input_orca/pair/00003-00017.inp
|  1> # ================================================================
|  2> # Orca input file made by Matty Jones
|  3> # ================================================================
|  4> ! ZINDO/S 
|  5> ! NOPOP
|  6> ! NOMOPRINT
|  7> * xyz 0   1
|  8>  C  12.58969  10.38405  -2.41652
|  9>  C  13.49237  11.13649  -1.66360
| 10>  C  14.35263  10.35455  -0.83125
| 11>  C  14.12810  8.97773  -0.92741
| 12>  S  12.89437  8.80276  -2.02182
| 13>  H  14.08905  12.10345  -1.98059
| 14>  C  15.56019  10.72850  0.20348
| 15>  C  16.99555  11.56879  -0.18699
| 16>  C  17.24888  13.21541  0.02050
| 17>  H  17.79154  13.62014  -0.91682
| 18>  H  16.22651  13.74002  0.12267
| 19>  H  17.82926  11.02699  0.40802
| 20>  H  17.16863  11.35842  -1.31273
| 21>  H  15.09152  11.39177  1.04287
| 22>  H  15.94639  9.76248  0.72056
| 23>  C  18.16568  13.49677  1.34506
| 24>  C  17.33402  13.33141  2.80231
| 25>  C  16.44087  14.69196  3.21139
| 26>  H  16.82682  15.60842  2.61944
| 27>  H  16.53944  14.89312  4.34639
| 28>  H  15.32918  14.50250  2.94628
| 29>  H  16.62975  12.42356  2.72832
| 30>  H  18.10937  13.14578  3.63598
| 31>  H  19.05673  12.75840  1.36595
| 32>  H  18.58940  14.57240  1.29656
| 33>  C  -11.07197  -12.36682  -0.19037
| 34>  C  -12.15554  -12.85827  -0.91993
| 35>  C  -13.30453  -12.00750  -0.90346
| 36>  C  -13.12734  -10.83835  -0.15713
| 37>  S  -11.58015  -10.91766  0.43477
| 38>  H  -12.58239  -13.93704  -0.60736
| 39>  C  -14.59337  -12.50384  -1.73769
| 40>  C  -16.17797  -12.17260  -1.30538
| 41>  C  -16.80231  -13.22977  -0.15413
| 42>  H  -16.50671  -14.30770  -0.44833
| 43>  H  -16.31236  -12.97371  0.86181
| 44>  H  -16.24369  -11.09797  -0.90869
| 45>  H  -16.82724  -12.26664  -2.25715
| 46>  H  -14.54641  -13.67287  -1.82557
| 47>  H  -14.48733  -12.09510  -2.83241
| 48>  C  -18.41980  -13.11467  -0.03581
| 49>  C  -18.97104  -11.68173  0.66266
| 50>  C  -19.30619  -10.51290  -0.50542
| 51>  H  -18.58249  -10.62918  -1.40033
| 52>  H  -19.18145  -9.46052  -0.04109
| 53>  H  -20.39495  -10.65161  -0.87249
| 54>  H  -19.93173  -11.89959  1.25736
| 55>  H  -18.15809  -11.27281  1.36696
| 56>  H  -18.89389  -13.20774  -1.08706
| 57>  H  -18.81104  -13.98616  0.61962
| 58>  H  11.86265  10.74698  -3.09717
| 59>  H  14.63938  8.20718  -0.40928
| 60>  H  -10.12402  -12.82368  -0.06283
| 61>  H  -13.83397  -10.06359  -0.00215
| 62> *
| 63> 
| 64>                          ****END OF INPUT****
================================================================================

                       ****************************
                       * Single Point Calculation *
                       ****************************

---------------------------------
CARTESIAN COORDINATES (ANGSTROEM)
---------------------------------
  C     12.589690   10.384050   -2.416520
  C     13.492370   11.136490   -1.663600
  C     14.352630   10.354550   -0.831250
  C     14.128100    8.977730   -0.927410
  S     12.894370    8.802760   -2.021820
  H     14.089050   12.103450   -1.980590
  C     15.560190   10.728500    0.203480
  C     16.995550   11.568790   -0.186990
  C     17.248880   13.215410    0.020500
  H     17.791540   13.620140   -0.916820
  H     16.226510   13.740020    0.122670
  H     17.829260   11.026990    0.408020
  H     17.168630   11.358420   -1.312730
  H     15.091520   11.391770    1.042870
  H     15.946390    9.762480    0.720560
  C     18.165680   13.496770    1.345060
  C     17.334020   13.331410    2.802310
  C     16.440870   14.691960    3.211390
  H     16.826820   15.608420    2.619440
  H     16.539440   14.893120    4.346390
  H     15.329180   14.502500    2.946280
  H     16.629750   12.423560    2.728320
  H     18.109370   13.145780    3.635980
  H     19.056730   12.758400    1.365950
  H     18.589400   14.572400    1.296560
  C    -11.071970  -12.366820   -0.190370
  C    -12.155540  -12.858270   -0.919930
  C    -13.304530  -12.007500   -0.903460
  C    -13.127340  -10.838350   -0.157130
  S    -11.580150  -10.917660    0.434770
  H    -12.582390  -13.937040   -0.607360
  C    -14.593370  -12.503840   -1.737690
  C    -16.177970  -12.172600   -1.305380
  C    -16.802310  -13.229770   -0.154130
  H    -16.506710  -14.307700   -0.448330
  H    -16.312360  -12.973710    0.861810
  H    -16.243690  -11.097970   -0.908690
  H    -16.827240  -12.266640   -2.257150
  H    -14.546410  -13.672870   -1.825570
  H    -14.487330  -12.095100   -2.832410
  C    -18.419800  -13.114670   -0.035810
  C    -18.971040  -11.681730    0.662660
  C    -19.306190  -10.512900   -0.505420
  H    -18.582490  -10.629180   -1.400330
  H    -19.181450   -9.460520   -0.041090
  H    -20.394950  -10.651610   -0.872490
  H    -19.931730  -11.899590    1.257360
  H    -18.158090  -11.272810    1.366960
  H    -18.893890  -13.207740   -1.087060
  H    -18.811040  -13.986160    0.619620
  H     11.862650   10.746980   -3.097170
  H     14.639380    8.207180   -0.409280
  H    -10.124020  -12.823680   -0.062830
  H    -13.833970  -10.063590   -0.002150

----------------------------
CARTESIAN COORDINATES (A.U.)
----------------------------
  NO LB      ZA    FRAG    MASS        X           Y           Z
   0 C     4.0000    0    12.011         23.791066210967042         19.623010660944974         -4.566560997143383
   1 C     4.0000    0    12.011         25.496884197535078         21.044916193152680         -3.143748396391394
   2 C     4.0000    0    12.011         27.122540001502173         19.567263739994296         -1.570834848822040
   3 C     4.0000    0    12.011         26.698239792652835         16.965451004288838         -1.752550913859908
   4 S     6.0000    0    32.060         24.366827969450171         16.634805622636637         -3.820686092084665
   5 H     1.0000    0     1.008         26.624445987123210         22.872205775609174         -3.742772683583092
   6 C     4.0000    0    12.011         29.404497691780122         20.273926827774151          0.384521473730296
   7 C     4.0000    0    12.011         32.116934995365334         21.861844800846836         -0.353359889781935
   8 C     4.0000    0    12.011         32.595659316871597         24.973505647484249          0.038739385745386
   9 H     1.0000    0     1.008         33.621138100705309         25.738334505666195         -1.732538714101682
  10 H     1.0000    0     1.008         30.663660009334532         25.964874874600675          0.231812704848120
  11 H     1.0000    0     1.008         33.692418570476818         20.837991181488302          0.771046057162549
  12 H     1.0000    0     1.008         32.444008794624416         21.464303114053823         -2.480700187782444
  13 H     1.0000    0     1.008         28.518839744595248         21.527325480620096          1.970738693282456
  14 H     1.0000    0     1.008         30.134309924700506         18.448413587883540          1.361661063058297
  15 C     4.0000    0    12.011         34.328160236450600         25.505198992524331          2.541795033692118
  16 C     4.0000    0    12.011         32.756550599913652         25.192713879019113          5.295598442348862
  17 C     4.0000    0    12.011         31.068741703401891         27.763780770525674          6.068647609213369
  18 H     1.0000    0     1.008         31.798081504788797         29.495639183219144          4.950024224238684
  19 H     1.0000    0     1.008         31.255012008422504         28.143918079625269          8.213486771213990
  20 H     1.0000    0     1.008         28.967952057582970         27.405753257192952          5.567662313849505
  21 H     1.0000    0     1.008         31.425673175576936         23.477126008338704          5.155777605700029
  22 H     1.0000    0     1.008         34.221749757849494         24.841924016779313          6.871006428414993
  23 H     1.0000    0     1.008         36.012000708081139         24.109881907020895          2.581271412629734
  24 H     1.0000    0     1.008         35.128874993915716         27.537845113954049          2.450143316196938
  25 C     4.0000    0    12.011        -20.922991062992082        -23.369902947500016         -0.359747164114589
  26 C     4.0000    0    12.011        -22.970641609925131        -24.298608856015612         -1.738415762378177
  27 C     4.0000    0    12.011        -25.141918040539309        -22.690886553059428         -1.707291972952494
  28 C     4.0000    0    12.011        -24.807077466869803        -20.481513243585397         -0.296932667423046
  29 S     6.0000    0    32.060        -21.883312089728182        -20.631387423266691          0.821596231244943
  30 H     1.0000    0     1.008        -23.777271210189419        -26.337188717505839         -1.147744064698411
  31 C     4.0000    0    12.011        -27.577472670982377        -23.628833222369902         -3.283758205653620
  32 C     4.0000    0    12.011        -30.571932702793990        -23.002880337769827         -2.466810700698123
  33 C     4.0000    0    12.011        -31.751764317246383        -25.000642114767359         -0.291263489021283
  34 H     1.0000    0     1.008        -31.193161272059267        -27.037634606305094         -0.847220917620915
  35 H     1.0000    0     1.008        -30.825892997931671        -24.516758840915482          1.628584879474674
  36 H     1.0000    0     1.008        -30.696125504315297        -20.972123942474035         -1.717175240632902
  37 H     1.0000    0     1.008        -31.798875189765042        -23.180590183403783         -4.265395343180353
  38 H     1.0000    0     1.008        -27.488731131733434        -25.837979764707864         -3.449827338302619
  39 H     1.0000    0     1.008        -27.377086111741367        -22.856426562390933         -5.352479198979892
  40 C     4.0000    0    12.011        -34.808377441602666        -24.783134636753022         -0.067671092855720
  41 C     4.0000    0    12.011        -35.850070075665421        -22.075270470411905          1.252245919904257
  42 C     4.0000    0    12.011        -36.483411789449129        -19.866501873300727         -0.955105382606479
  43 H     1.0000    0     1.008        -35.115816986330323        -20.086239228153090         -2.646240197113947
  44 H     1.0000    0     1.008        -36.247687351503792        -17.877791884484679         -0.077648846842824
  45 H     1.0000    0     1.008        -38.540870015017234        -20.128625785336943         -1.648767154584953
  46 H     1.0000    0     1.008        -37.665511075262231        -22.486966205947986          2.376066051747225
  47 H     1.0000    0     1.008        -34.313817215094140        -21.302523659728823          2.583180036024994
  48 H     1.0000    0     1.008        -35.704277704433395        -24.959011448037071         -2.054245691140436
  49 H     1.0000    0     1.008        -35.547713894238022        -26.430012065204053          1.170912107100286
  50 H     1.0000    0     1.008         22.417159722560935         20.308848966729013         -5.852803090196883
  51 H     1.0000    0     1.008         27.664418970404093         15.509322531795817         -0.773427112091290
  52 H     1.0000    0     1.008        -19.131625174341430        -24.233243229043275         -0.118731492994272
  53 H     1.0000    0     1.008        -26.142414644882578        -19.017429024068569         -0.004062911187931

--------------------------------
INTERNAL COORDINATES (ANGSTROEM)
--------------------------------
 C      0   0   0   0.000000     0.000     0.000
 C      1   0   0   1.395667     0.000     0.000
 C      2   1   0   1.429785   114.101     0.000
 C      3   2   1   1.398318   113.693     0.000
 S      1   2   3   1.658040   105.480     0.000
 H      2   1   3   1.179628   128.617   141.125
 C      3   2   1   1.633617   133.495   179.248
 C      7   3   2   1.708453   126.076   300.986
 C      8   7   3   1.678864   125.516    96.305
 H      9   8   7   1.156224   108.297   222.543
 H      9   8   7   1.153644   108.858   341.138
 H      8   7   3   1.158731   104.901   219.964
 H      8   7   3   1.158233   104.972   333.519
 H      7   3   2   1.167970   106.773    61.421
 H      7   3   2   1.161773   109.712   176.571
 C      9   8   7   1.635281   110.699   102.530
 C     16   9   8   1.685995   113.996   284.055
 C     17  16   9   1.678142   113.186   278.322
 H     18  17  16   1.157265   109.868   341.139
 H     18  17  16   1.156895   109.559   220.660
 H     18  17  16   1.158462   108.806   100.909
 H     17  16   9   1.151374   108.876    39.999
 H     17  16   9   1.153530   107.992   158.587
 H     16   9   8   1.157410   109.662    44.693
 H     16   9   8   1.157096   109.347   163.147
 C      5   1   2  32.029530   120.428   144.233
 C     26   5   1   1.395674   141.607    52.198
 C     27  26   5   1.429776   114.102   281.330
 C     28  27  26   1.398326   113.693     0.000
 S     26   5   1   1.658045    70.927   321.147
 H     27  26   5   1.201518   117.128   159.209
 C     28  27  26   1.613506   116.931   179.439
 C     32  28  27   1.675580   124.139   148.090
 C     33  32  28   1.683088   113.773   276.851
 H     34  33  32   1.155797   108.470   315.549
 H     34  33  32   1.156612   107.736    73.126
 H     33  32  28   1.147393   109.179    39.238
 H     33  32  28   1.155968   107.617   157.635
 H     32  28  27   1.173269   108.256    24.929
 H     32  28  27   1.173339   107.640   270.900
 C     34  33  32   1.625891   111.984   194.199
 C     41  34  33   1.686726   114.544   289.721
 C     42  41  34   1.686090   111.531    92.978
 H     43  42  41   1.156774   109.993   327.310
 H     43  42  41   1.157007   109.334   206.990
 H     43  42  41   1.157316   108.883    87.103
 H     42  41  34   1.150676   109.028   213.226
 H     42  41  34   1.150714   108.933   333.186
 H     41  34  33   1.156957   109.623    51.418
 H     41  34  33   1.158513   108.898   169.824
 H      1   2   3   1.059995   127.260   180.001
 H      4   3   2   1.060006   127.207   180.001
 H     26   5   1   1.059998    67.826   174.772
 H     29  28  27   1.059999   127.206   180.000

---------------------------
INTERNAL COORDINATES (A.U.)
---------------------------
 C      0   0   0   0.000000     0.000     0.000
 C      1   0   0   2.637428     0.000     0.000
 C      2   1   0   2.701901   114.101     0.000
 C      3   2   1   2.642438   113.693     0.000
 S      1   2   3   3.133241   105.480     0.000
 H      2   1   3   2.229173   128.617   141.125
 C      3   2   1   3.087090   133.495   179.248
 C      7   3   2   3.228509   126.076   300.986
 C      8   7   3   3.172594   125.516    96.305
 H      9   8   7   2.184948   108.297   222.543
 H      9   8   7   2.180071   108.858   341.138
 H      8   7   3   2.189683   104.901   219.964
 H      8   7   3   2.188742   104.972   333.519
 H      7   3   2   2.207144   106.773    61.421
 H      7   3   2   2.195433   109.712   176.571
 C      9   8   7   3.090234   110.699   102.530
 C     16   9   8   3.186069   113.996   284.055
 C     17  16   9   3.171228   113.186   278.322
 H     18  17  16   2.186913   109.868   341.139
 H     18  17  16   2.186215   109.559   220.660
 H     18  17  16   2.189175   108.806   100.909
 H     17  16   9   2.175782   108.876    39.999
 H     17  16   9   2.179856   107.992   158.587
 H     16   9   8   2.187187   109.662    44.693
 H     16   9   8   2.186594   109.347   163.147
 C      5   1   2  60.527040   120.428   144.233
 C     26   5   1   2.637441   141.607    52.198
 C     27  26   5   2.701885   114.102   281.330
 C     28  27  26   2.642454   113.693     0.000
 S     26   5   1   3.133250    70.927   321.147
 H     27  26   5   2.270540   117.128   159.209
 C     28  27  26   3.049084   116.931   179.439
 C     32  28  27   3.166388   124.139   148.090
 C     33  32  28   3.180575   113.773   276.851
 H     34  33  32   2.184139   108.470   315.549
 H     34  33  32   2.185680   107.736    73.126
 H     33  32  28   2.168259   109.179    39.238
 H     33  32  28   2.184462   107.617   157.635
 H     32  28  27   2.217156   108.256    24.929
 H     32  28  27   2.217290   107.640   270.900
 C     34  33  32   3.072489   111.984   194.199
 C     41  34  33   3.187449   114.544   289.721
 C     42  41  34   3.186249   111.531    92.978
 H     43  42  41   2.185987   109.993   327.310
 H     43  42  41   2.186427   109.334   206.990
 H     43  42  41   2.187009   108.883    87.103
 H     42  41  34   2.174463   109.028   213.226
 H     42  41  34   2.174534   108.933   333.186
 H     41  34  33   2.186332   109.623    51.418
 H     41  34  33   2.189272   108.898   169.824
 H      1   2   3   2.003101   127.260   180.001
 H      4   3   2   2.003122   127.207   180.001
 H     26   5   1   2.003107    67.826   174.772
 H     29  28  27   2.003108   127.206   180.000

----------------------------
SLATER BASIS SET DIM= 120
----------------------------
  0 C     2 shells
 l=0 nsto= 1
    2       1.625000000000        1.000000000000
 l=1 nsto= 1
    2       1.625000000000        1.000000000000
  1 C     2 shells
 l=0 nsto= 1
    2       1.625000000000        1.000000000000
 l=1 nsto= 1
    2       1.625000000000        1.000000000000
  2 C     2 shells
 l=0 nsto= 1
    2       1.625000000000        1.000000000000
 l=1 nsto= 1
    2       1.625000000000        1.000000000000
  3 C     2 shells
 l=0 nsto= 1
    2       1.625000000000        1.000000000000
 l=1 nsto= 1
    2       1.625000000000        1.000000000000
  4 S     2 shells
 l=0 nsto= 1
    3       1.925000000000        1.000000000000
 l=1 nsto= 1
    3       1.925000000000        1.000000000000
  5 H     1 shells
 l=0 nsto= 1
    1       1.200000000000        1.000000000000
  6 C     2 shells
 l=0 nsto= 1
    2       1.625000000000        1.000000000000
 l=1 nsto= 1
    2       1.625000000000        1.000000000000
  7 C     2 shells
 l=0 nsto= 1
    2       1.625000000000        1.000000000000
 l=1 nsto= 1
    2       1.625000000000        1.000000000000
  8 C     2 shells
 l=0 nsto= 1
    2       1.625000000000        1.000000000000
 l=1 nsto= 1
    2       1.625000000000        1.000000000000
  9 H     1 shells
 l=0 nsto= 1
    1       1.200000000000        1.000000000000
 10 H     1 shells
 l=0 nsto= 1
    1       1.200000000000        1.000000000000
 11 H     1 shells
 l=0 nsto= 1
    1       1.200000000000        1.000000000000
 12 H     1 shells
 l=0 nsto= 1
    1       1.200000000000        1.000000000000
 13 H     1 shells
 l=0 nsto= 1
    1       1.200000000000        1.000000000000
 14 H     1 shells
 l=0 nsto= 1
    1       1.200000000000        1.000000000000
 15 C     2 shells
 l=0 nsto= 1
    2       1.625000000000        1.000000000000
 l=1 nsto= 1
    2       1.625000000000        1.000000000000
 16 C     2 shells
 l=0 nsto= 1
    2       1.625000000000        1.000000000000
 l=1 nsto= 1
    2       1.625000000000        1.000000000000
 17 C     2 shells
 l=0 nsto= 1
    2       1.625000000000        1.000000000000
 l=1 nsto= 1
    2       1.625000000000        1.000000000000
 18 H     1 shells
 l=0 nsto= 1
    1       1.200000000000        1.000000000000
 19 H     1 shells
 l=0 nsto= 1
    1       1.200000000000        1.000000000000
 20 H     1 shells
 l=0 nsto= 1
    1       1.200000000000        1.000000000000
 21 H     1 shells
 l=0 nsto= 1
    1       1.200000000000        1.000000000000
 22 H     1 shells
 l=0 nsto= 1
    1       1.200000000000        1.000000000000
 23 H     1 shells
 l=0 nsto= 1
    1       1.200000000000        1.000000000000
 24 H     1 shells
 l=0 nsto= 1
    1       1.200000000000        1.000000000000
 25 C     2 shells
 l=0 nsto= 1
    2       1.625000000000        1.000000000000
 l=1 nsto= 1
    2       1.625000000000        1.000000000000
 26 C     2 shells
 l=0 nsto= 1
    2       1.625000000000        1.000000000000
 l=1 nsto= 1
    2       1.625000000000        1.000000000000
 27 C     2 shells
 l=0 nsto= 1
    2       1.625000000000        1.000000000000
 l=1 nsto= 1
    2       1.625000000000        1.000000000000
 28 C     2 shells
 l=0 nsto= 1
    2       1.625000000000        1.000000000000
 l=1 nsto= 1
    2       1.625000000000        1.000000000000
 29 S     2 shells
 l=0 nsto= 1
    3       1.925000000000        1.000000000000
 l=1 nsto= 1
    3       1.925000000000        1.000000000000
 30 H     1 shells
 l=0 nsto= 1
    1       1.200000000000        1.000000000000
 31 C     2 shells
 l=0 nsto= 1
    2       1.625000000000        1.000000000000
 l=1 nsto= 1
    2       1.625000000000        1.000000000000
 32 C     2 shells
 l=0 nsto= 1
    2       1.625000000000        1.000000000000
 l=1 nsto= 1
    2       1.625000000000        1.000000000000
 33 C     2 shells
 l=0 nsto= 1
    2       1.625000000000        1.000000000000
 l=1 nsto= 1
    2       1.625000000000        1.000000000000
 34 H     1 shells
 l=0 nsto= 1
    1       1.200000000000        1.000000000000
 35 H     1 shells
 l=0 nsto= 1
    1       1.200000000000        1.000000000000
 36 H     1 shells
 l=0 nsto= 1
    1       1.200000000000        1.000000000000
 37 H     1 shells
 l=0 nsto= 1
    1       1.200000000000        1.000000000000
 38 H     1 shells
 l=0 nsto= 1
    1       1.200000000000        1.000000000000
 39 H     1 shells
 l=0 nsto= 1
    1       1.200000000000        1.000000000000
 40 C     2 shells
 l=0 nsto= 1
    2       1.625000000000        1.000000000000
 l=1 nsto= 1
    2       1.625000000000        1.000000000000
 41 C     2 shells
 l=0 nsto= 1
    2       1.625000000000        1.000000000000
 l=1 nsto= 1
    2       1.625000000000        1.000000000000
 42 C     2 shells
 l=0 nsto= 1
    2       1.625000000000        1.000000000000
 l=1 nsto= 1
    2       1.625000000000        1.000000000000
 43 H     1 shells
 l=0 nsto= 1
    1       1.200000000000        1.000000000000
 44 H     1 shells
 l=0 nsto= 1
    1       1.200000000000        1.000000000000
 45 H     1 shells
 l=0 nsto= 1
    1       1.200000000000        1.000000000000
 46 H     1 shells
 l=0 nsto= 1
    1       1.200000000000        1.000000000000
 47 H     1 shells
 l=0 nsto= 1
    1       1.200000000000        1.000000000000
 48 H     1 shells
 l=0 nsto= 1
    1       1.200000000000        1.000000000000
 49 H     1 shells
 l=0 nsto= 1
    1       1.200000000000        1.000000000000
 50 H     1 shells
 l=0 nsto= 1
    1       1.200000000000        1.000000000000
 51 H     1 shells
 l=0 nsto= 1
    1       1.200000000000        1.000000000000
 52 H     1 shells
 l=0 nsto= 1
    1       1.200000000000        1.000000000000
 53 H     1 shells
 l=0 nsto= 1
    1       1.200000000000        1.000000000000
------------------------------------------------------------------------------
                           ORCA NDO INTEGRAL CALCULATION
------------------------------------------------------------------------------

--------------
NDO PARAMETERS
--------------

Gamma integral treatment              ... Mataga-Nishimoto
Nuclear repulsuion treatment          ... Direct (ZA*ZB/RAB)
Interaction factors:
s-s (sigma) =    1.0000
s-p (sigma) =    1.0000
s-d (sigma) =    1.0000
p-p (sigma) =    1.2670  p-p(pi) =    0.5850
p-d (sigma) =    1.0000  p-d(pi) =    1.0000
d-d (sigma) =    1.0000  d-d(pi) =    1.0000 d-d (delta) =    1.0000

fGamma parameter for Mataga-Nishimoto gamma integrals:    1.2000

--------------------------
Parameters for Element H :
--------------------------
 One-electron parameters (in eV)
  U(s)  =   -13.060000 Beta(s) =    12.000000 Neff(s) =     1.000000
 One-center electron repulsion parameters (in eV)
  G(s,s)=    12.850000
--------------------------
Parameters for Element C :
--------------------------
 One-electron parameters (in eV)
  U(s)  =   -50.870766 Beta(s) =    17.000000 Neff(s) =     2.000000
  U(p)  =   -41.599980 Beta(p) =    17.000000 Neff(p) =     2.000000 
 One-center electron repulsion parameters (in eV)
  G(s,s)=    11.110000
  G(s,p)=    11.110000 G(p,p)  =    11.110000
 Slater-Condon parameters (in eV)
 F2(p,p)=     4.5098 G1(s,p)=    6.8977
--------------------------
Parameters for Element S :
--------------------------
 One-electron parameters (in eV)
  U(s)  =   -69.509597 Beta(s) =    15.000000 Neff(s) =     2.000000
  U(p)  =   -60.725746 Beta(p) =    15.000000 Neff(p) =     4.000000 
 One-center electron repulsion parameters (in eV)
  G(s,s)=    10.090000
  G(s,p)=    10.090000 G(p,p)  =    10.090000
 Slater-Condon parameters (in eV)
 F2(p,p)=     4.5377 G1(s,p)=    3.0756

 Number of atoms                    ....   54
 Number of basis functions          ....  120

 Overlap integrals                  .... done
 One electron matrix                .... done
 Nuclear repulsion                  .... done
 Integral list                      .... done
 Electron-electron repulsion        .... done
-------------------------------------------------------------------------------
                                 ORCA SCF
-------------------------------------------------------------------------------

------------
SCF SETTINGS
------------
Hamiltonian:
 ZDO-Hamiltonian        Method          .... INDO


General Settings:
 Integral files         IntName         .... /Users/mattyjones/GoogleDrive/Boise/Code/MorphCT/tests/output_EZ/donor_polymer/chromophores/input_orca/pair/00003-00017
 Hartree-Fock type      HFTyp           .... RHF
 Total Charge           Charge          ....    0
 Multiplicity           Mult            ....    1
 Number of Electrons    NEL             ....  124
 Basis Dimension        Dim             ....  120
 Nuclear Repulsion      ENuc            ....    648.6473384230 Eh

Convergence Acceleration:
 DIIS                   CNVDIIS         .... on
   Start iteration      DIISMaxIt       ....    12
   Startup error        DIISStart       ....  0.200000
   # of expansion vecs  DIISMaxEq       ....     5
   Bias factor          DIISBfac        ....   1.050
   Max. coefficient     DIISMaxC        ....  10.000
 Newton-Raphson         CNVNR           .... off
 SOSCF                  CNVSOSCF        .... on
   Start iteration      SOSCFMaxIt      ....   150
   Startup grad/error   SOSCFStart      ....  0.003300
 Level Shifting         CNVShift        .... on
   Level shift para.    LevelShift      ....    0.2500
   Turn off err/grad.   ShiftErr        ....    0.0010
 Zerner damping         CNVZerner       .... off
 Static damping         CNVDamp         .... on
   Fraction old density DampFac         ....    0.7000
   Max. Damping (<1)    DampMax         ....    0.9800
   Min. Damping (>=0)   DampMin         ....    0.0000
   Turn off err/grad.   DampErr         ....    0.1000
 Fernandez-Rico         CNVRico         .... off

SCF Procedure:
 Maximum # iterations   MaxIter         ....   125
 SCF integral mode      SCFMode         .... Conventional
 Integral Buffer length BufferLength    .... 1048576
 Integral index format  IndFormat       ....     0
 Integral value format  ValFormat       ....     0
 Integral Storage       Thresh          ....  1.000e-08 Eh

Convergence Tolerance:
 Convergence Check Mode ConvCheckMode   .... Total+1el-Energy
 Energy Change          TolE            ....  1.000e-06 Eh
 1-El. energy change                    ....  1.000e-03 Eh
 Orbital Gradient       TolG            ....  5.000e-05
 Orbital Rotation angle TolX            ....  5.000e-05
 DIIS Error             TolErr          ....  1.000e-06


Diagonalization of the overlap matrix:
Smallest eigenvalue                        ... 1.676e-01
Time for diagonalization                   ...    0.003 sec
Threshold for overlap eigenvalues          ... 1.000e-08
Number of eigenvalues below threshold      ... 0
Time for construction of square roots      ...    0.000 sec
Total time needed                          ...    0.004 sec

-------------------------------
INITIAL GUESS: EXTENDED HUECKEL
-------------------------------
EHT matrix was read from disk
EHT matrix was diagonalized
Initial density was built
                      ------------------
                      INITIAL GUESS DONE
                      ------------------

 InCore treatment chosen:
   Memory dedicated               ...    1024 MB
   Memory needed                  ...      0 MB
   Number of tiny    integrals    ...       0
   Number of small   integrals    ...       0
   Number of regular integrals    ...    7392

--------------
SCF ITERATIONS
--------------
ITER       Energy         Delta-E        Max-DP      RMS-DP      [F,P]     Damp
  0    -19.5519034109   0.000000000000 0.04785205  0.00154274  0.1081804 0.7000
  1    -19.5983772376  -0.046473826688 0.04600732  0.00145982  0.0760095 0.7000
                               ***Turning on DIIS***
  2    -19.6325795719  -0.034202334275 0.11856737  0.00374729  0.0502011 0.0000
  3    -19.7238532082  -0.091273636327 0.01954385  0.00077365  0.0238398 0.0000
  4    -19.7037923968   0.020060811446 0.01186074  0.00055319  0.0085811 0.0000
  5    -19.7226394935  -0.018847096712 0.00870329  0.00037989  0.0050947 0.0000
  6    -19.7243111494  -0.001671655921 0.00705290  0.00027663  0.0027377 0.0000
  7    -19.7214849743   0.002826175067 0.00456909  0.00016484  0.0015867 0.0000
                      *** Initiating the SOSCF procedure ***
                           *** Shutting down DIIS ***
                      *** Re-Reading the Fockian *** 
                      *** Removing any level shift *** 
ITER      Energy       Delta-E        Grad      Rot      Max-DP    RMS-DP
  8    -19.72073459   0.0007503810  0.001991  0.001991  0.004494  0.000151
  9    -19.71975793   0.0009766642  0.000149  0.000415  0.000520  0.000015
                 **** Energy Check signals convergence ****
              ***Rediagonalizing the Fockian in SOSCF/NRSCF***

               *****************************************************
               *                     SUCCESS                       *
               *           SCF CONVERGED AFTER  10 CYCLES          *
               *****************************************************


----------------
TOTAL SCF ENERGY
----------------

Total Energy       :          -19.71975872 Eh            -536.60192 eV

Components:
Nuclear Repulsion  :          648.64733842 Eh           17650.59142 eV
Electronic Energy  :         -668.36709715 Eh          -18187.19333 eV

One Electron Energy:        -1246.41054060 Eh          -33916.55509 eV
Two Electron Energy:          578.04344345 Eh           15729.36176 eV


---------------
SCF CONVERGENCE
---------------

  Last Energy change         ...   -7.9387e-07  Tolerance :   1.0000e-06
  Last MAX-Density change    ...    5.4818e-04  Tolerance :   1.0000e-05
  Last RMS-Density change    ...    1.5691e-05  Tolerance :   1.0000e-06
  Last Orbital Gradient      ...    1.0122e-04  Tolerance :   5.0000e-05
  Last Orbital Rotation      ...    5.9533e-04  Tolerance :   5.0000e-05

             **** THE GBW FILE WAS UPDATED (/Users/mattyjones/GoogleDrive/Boise/Code/MorphCT/tests/output_EZ/donor_polymer/chromophores/input_orca/pair/00003-00017.gbw) ****
             **** DENSITY FILE WAS UPDATED (/Users/mattyjones/GoogleDrive/Boise/Code/MorphCT/tests/output_EZ/donor_polymer/chromophores/input_orca/pair/00003-00017.scfp.tmp) ****
             **** ENERGY FILE WAS UPDATED (/Users/mattyjones/GoogleDrive/Boise/Code/MorphCT/tests/output_EZ/donor_polymer/chromophores/input_orca/pair/00003-00017.en.tmp) ****
----------------
ORBITAL ENERGIES
----------------

  NO   OCC          E(Eh)            E(eV) 
   0   2.0000      -1.564779       -42.5798 
   1   2.0000      -1.558371       -42.4054 
   2   2.0000      -1.419192       -38.6182 
   3   2.0000      -1.413022       -38.4503 
   4   2.0000      -1.285859       -34.9900 
   5   2.0000      -1.279270       -34.8107 
   6   2.0000      -1.191290       -32.4166 
   7   2.0000      -1.172045       -31.8930 
   8   2.0000      -1.105970       -30.0950 
   9   2.0000      -1.098579       -29.8938 
  10   2.0000      -1.061719       -28.8908 
  11   2.0000      -1.029286       -28.0083 
  12   2.0000      -0.983703       -26.7679 
  13   2.0000      -0.956709       -26.0334 
  14   2.0000      -0.912264       -24.8240 
  15   2.0000      -0.881583       -23.9891 
  16   2.0000      -0.862834       -23.4789 
  17   2.0000      -0.847830       -23.0706 
  18   2.0000      -0.832947       -22.6656 
  19   2.0000      -0.821261       -22.3476 
  20   2.0000      -0.779830       -21.2202 
  21   2.0000      -0.774473       -21.0745 
  22   2.0000      -0.729709       -19.8564 
  23   2.0000      -0.725659       -19.7462 
  24   2.0000      -0.698274       -19.0010 
  25   2.0000      -0.690707       -18.7951 
  26   2.0000      -0.680575       -18.5194 
  27   2.0000      -0.671329       -18.2678 
  28   2.0000      -0.648109       -17.6360 
  29   2.0000      -0.638819       -17.3831 
  30   2.0000      -0.613998       -16.7077 
  31   2.0000      -0.608846       -16.5676 
  32   2.0000      -0.586876       -15.9697 
  33   2.0000      -0.586722       -15.9655 
  34   2.0000      -0.586157       -15.9501 
  35   2.0000      -0.578505       -15.7419 
  36   2.0000      -0.572087       -15.5673 
  37   2.0000      -0.566136       -15.4054 
  38   2.0000      -0.555085       -15.1046 
  39   2.0000      -0.547920       -14.9097 
  40   2.0000      -0.532858       -14.4998 
  41   2.0000      -0.532595       -14.4926 
  42   2.0000      -0.522354       -14.2140 
  43   2.0000      -0.520189       -14.1551 
  44   2.0000      -0.512445       -13.9443 
  45   2.0000      -0.500058       -13.6073 
  46   2.0000      -0.496914       -13.5217 
  47   2.0000      -0.493219       -13.4212 
  48   2.0000      -0.485249       -13.2043 
  49   2.0000      -0.477808       -13.0018 
  50   2.0000      -0.473851       -12.8941 
  51   2.0000      -0.471296       -12.8246 
  52   2.0000      -0.467424       -12.7193 
  53   2.0000      -0.462909       -12.5964 
  54   2.0000      -0.462594       -12.5878 
  55   2.0000      -0.459557       -12.5052 
  56   2.0000      -0.436817       -11.8864 
  57   2.0000      -0.434340       -11.8190 
  58   2.0000      -0.351884        -9.5753 
  59   2.0000      -0.340530        -9.2663 
  60   2.0000      -0.304454        -8.2846 
  61   2.0000      -0.304155        -8.2765 
  62   0.0000      -0.002825        -0.0769 
  63   0.0000       0.002828         0.0770 
  64   0.0000       0.054471         1.4822 
  65   0.0000       0.056012         1.5242 
  66   0.0000       0.075854         2.0641 
  67   0.0000       0.079442         2.1617 
  68   0.0000       0.091964         2.5025 
  69   0.0000       0.093219         2.5366 
  70   0.0000       0.103026         2.8035 
  71   0.0000       0.103767         2.8236 
  72   0.0000       0.109059         2.9677 
  73   0.0000       0.111141         3.0243 
  74   0.0000       0.126814         3.4508 
  75   0.0000       0.126951         3.4545 
  76   0.0000       0.141652         3.8546 
  77   0.0000       0.143365         3.9012 
  78   0.0000       0.158263         4.3065 
  79   0.0000       0.159449         4.3388 
  80   0.0000       0.164909         4.4874 
  81   0.0000       0.167876         4.5681 
  82   0.0000       0.174837         4.7576 
  83   0.0000       0.186578         5.0770 
  84   0.0000       0.199461         5.4276 
  85   0.0000       0.202516         5.5107 
  86   0.0000       0.231800         6.3076 
  87   0.0000       0.232525         6.3273 
  88   0.0000       0.234714         6.3869 
  89   0.0000       0.236437         6.4338 
  90   0.0000       0.236663         6.4399 
  91   0.0000       0.236900         6.4464 
  92   0.0000       0.239305         6.5118 
  93   0.0000       0.239602         6.5199 
  94   0.0000       0.241398         6.5688 
  95   0.0000       0.241730         6.5778 
  96   0.0000       0.243609         6.6289 
  97   0.0000       0.244424         6.6511 
  98   0.0000       0.246115         6.6971 
  99   0.0000       0.247241         6.7278 
 100   0.0000       0.247297         6.7293 
 101   0.0000       0.262556         7.1445 
 102   0.0000       0.262629         7.1465 
 103   0.0000       0.263316         7.1652 
 104   0.0000       0.265601         7.2274 
 105   0.0000       0.265700         7.2301 
 106   0.0000       0.281935         7.6719 
 107   0.0000       0.288526         7.8512 
 108   0.0000       0.303800         8.2668 
 109   0.0000       0.307524         8.3682 
 110   0.0000       0.308903         8.4057 
 111   0.0000       0.309284         8.4160 
 112   0.0000       0.327581         8.9139 
 113   0.0000       0.334907         9.1133 
 114   0.0000       0.344743         9.3809 
 115   0.0000       0.354377         9.6431 
 116   0.0000       0.400776        10.9057 
 117   0.0000       0.417767        11.3680 
 118   0.0000       0.431979        11.7547 
 119   0.0000       0.438320        11.9273 
-------
TIMINGS
-------

Total SCF time: 0 days 0 hours 0 min 0 sec 

Total time                  ....       0.133 sec
Sum of individual times     ....       0.108 sec  ( 81.1%)

Fock matrix formation       ....       0.048 sec  ( 35.8%)
Diagonalization             ....       0.029 sec  ( 21.5%)
Density matrix formation    ....       0.005 sec  (  3.5%)
Population analysis         ....       0.000 sec  (  0.0%)
Initial guess               ....       0.003 sec  (  2.2%)
Orbital Transformation      ....       0.000 sec  (  0.0%)
Orbital Orthonormalization  ....       0.000 sec  (  0.0%)
DIIS solution               ....       0.021 sec  ( 15.8%)
SOSCF solution              ....       0.003 sec  (  2.2%)

-------------------------   --------------------
FINAL SINGLE POINT ENERGY       -19.719758723058
-------------------------   --------------------


                            ***************************************
                            *     ORCA property calculations      *
                            ***************************************

                                    ---------------------
                                    Active property flags
                                    ---------------------
   (+) Dipole Moment


------------------------------------------------------------------------------
                       ORCA ELECTRIC PROPERTIES CALCULATION
------------------------------------------------------------------------------

Dipole Moment Calculation                       ... on
Quadrupole Moment Calculation                   ... off
Polarizability Calculation                      ... off
GBWName                                         ... /Users/mattyjones/GoogleDrive/Boise/Code/MorphCT/tests/output_EZ/donor_polymer/chromophores/input_orca/pair/00003-00017.gbw
Electron density file                           ... /Users/mattyjones/GoogleDrive/Boise/Code/MorphCT/tests/output_EZ/donor_polymer/chromophores/input_orca/pair/00003-00017.scfp.tmp

-------------
DIPOLE MOMENT
-------------
                                X             Y             Z
Electronic contribution:     38.36755     -60.78817     -48.92670
Nuclear contribution   :    -20.72605      32.50551      26.65739
                        -----------------------------------------
Total Dipole Moment    :     17.64149     -28.28266     -22.26932
                        -----------------------------------------
Magnitude (a.u.)       :     40.08808
Magnitude (Debye)      :    101.89579


Timings for individual modules:

Sum of individual times         ...        0.210 sec (=   0.004 min)
STO integral calculation        ...        0.040 sec (=   0.001 min)  19.0 %
SCF iterations                  ...        0.170 sec (=   0.003 min)  81.0 %
                             ****ORCA TERMINATED NORMALLY****
TOTAL RUN TIME: 0 days 0 hours 0 minutes 0 seconds 520 msec

