
                                 *****************
                                 * O   R   C   A *
                                 *****************

           --- An Ab Initio, DFT and Semiempirical electronic structure package ---

                  #######################################################
                  #                        -***-                        #
                  #  Department of molecular theory and spectroscopy    #
                  #              Directorship: Frank Neese              #
                  # Max Planck Institute for Chemical Energy Conversion #
                  #                  D-45470 Muelheim/Ruhr              #
                  #                       Germany                       #
                  #                                                     #
                  #                  All rights reserved                #
                  #                        -***-                        #
                  #######################################################


                         Program Version 3.0.3 - RELEASE   -


 With contributions from (in alphabetic order):
   Ute Becker             : Parallelization
   Dmytro Bykov           : SCF Hessian
   Dmitry Ganyushin       : Spin-Orbit,Spin-Spin,Magnetic field MRCI
   Andreas Hansen         : Spin unrestricted coupled pair/coupled cluster methods
   Dimitrios Liakos       : Extrapolation schemes; parallel MDCI
   Robert Izsak           : Overlap fitted RIJCOSX, COSX-SCS-MP3
   Christian Kollmar      : KDIIS, OOCD, Brueckner-CCSD(T), CCSD density
   Simone Kossmann        : Meta GGA functionals, TD-DFT gradient, OOMP2, MP2 Hessian
   Taras Petrenko         : DFT Hessian,TD-DFT gradient, ASA and ECA modules, normal mode analysis, Resonance Raman, ABS, FL, XAS/XES, NRVS
   Christoph Reimann      : Effective Core Potentials
   Michael Roemelt        : Restricted open shell CIS
   Christoph Riplinger    : Improved optimizer, TS searches, QM/MM, DLPNO-CCSD
   Barbara Sandhoefer     : DKH picture change effects
   Igor Schapiro          : Molecular dynamics
   Kantharuban Sivalingam : CASSCF convergence, NEVPT2
   Boris Wezisla          : Elementary symmetry handling
   Frank Wennmohs         : Technical directorship


 We gratefully acknowledge several colleagues who have allowed us to
 interface, adapt or use parts of their codes:
   Stefan Grimme, W. Hujo, H. Kruse, T. Risthaus : VdW corrections, initial TS optimization,
                                                   DFT functionals, gCP
   Ed Valeev                                     : LibInt (2-el integral package), F12 methods
   Garnet Chan, S. Sharma, R. Olivares           : DMRG
   Ulf Ekstrom                                   : XCFun DFT Library
   Mihaly Kallay                                 : mrcc  (arbitrary order and MRCC methods)
   Andreas Klamt, Michael Diedenhofen            : otool_cosmo (COSMO solvation model)
   Frank Weinhold                                : gennbo (NPA and NBO analysis)
   Christopher J. Cramer and Donald G. Truhlar   : smd solvation model


 Your calculation uses the libint2 library for the computation of 2-el integrals
 For citations please refer to: http://libint.valeyev.net

 This ORCA versions uses:
   CBLAS   interface :  Fast vector & matrix operations
   LAPACKE interface :  Fast linear algebra routines
   SCALAPACK package :  Parallel linear algebra routines


leaving
================================================================================
                                        WARNINGS
                       Please study these warnings very carefully!
================================================================================
Now building the actual basis set

WARNING: Direct SCF is incompatible with Method<>HF and Method<>DFT
  ===> : conventional SCF is chosen

WARNING: The NDO methods need Guess=HUECKEL or Guess=HCORE or Guess=MOREAD
  ===> : Guess is set to Hueckel

WARNING: The NDO methods need %rel::SOCType==1
  ===> : %rel::SOCType is set to 1

WARNING: The NDO methods cannot have frozencore=1
  ===> : %method FrozenCore=0 end


INFO   : the flag for use of LIBINT has been found!

================================================================================
                                       INPUT FILE
================================================================================
NAME = /Users/mattyjones/GoogleDrive/Boise/Code/MorphCT/tests/output_EZ/donor_polymer/chromophores/input_orca/pair/00002-00022.inp
|  1> # ================================================================
|  2> # Orca input file made by Matty Jones
|  3> # ================================================================
|  4> ! ZINDO/S 
|  5> ! NOPOP
|  6> ! NOMOPRINT
|  7> * xyz 0   1
|  8>  C  17.13321  6.80402  -7.50560
|  9>  C  16.29933  5.69171  -7.38189
| 10>  C  16.83926  4.64441  -6.57200
| 11>  C  18.10588  4.93119  -6.05359
| 12>  S  18.48575  6.44417  -6.61663
| 13>  H  15.19063  5.73335  -7.63602
| 14>  C  15.97389  3.30478  -6.36920
| 15>  C  14.29984  3.47699  -6.26610
| 16>  C  13.75837  3.44900  -7.87746
| 17>  H  12.72881  3.97022  -7.90419
| 18>  H  14.49233  4.02632  -8.55403
| 19>  H  13.84265  2.60301  -5.68062
| 20>  H  14.03200  4.47900  -5.77837
| 21>  H  16.22045  2.80344  -5.33985
| 22>  H  16.23171  2.54634  -7.21057
| 23>  C  13.64198  1.93242  -8.45437
| 24>  C  13.21704  1.78393  -10.08351
| 25>  C  12.93295  3.21545  -10.91871
| 26>  H  12.38985  2.96933  -11.91200
| 27>  H  13.94114  3.73458  -11.14851
| 28>  H  12.26888  3.91655  -10.28221
| 29>  H  14.07777  1.23239  -10.61987
| 30>  H  12.25982  1.14396  -10.13977
| 31>  H  14.66045  1.39542  -8.32880
| 32>  H  12.84935  1.35674  -7.83687
| 33>  C  -17.41856  -6.97105  6.31712
| 34>  C  -16.57292  -5.99070  6.83837
| 35>  C  -17.22679  -5.05083  7.69471
| 36>  C  -18.59563  -5.29021  7.85044
| 37>  S  -18.92033  -6.63327  6.93331
| 38>  H  -15.45192  -5.94295  6.62426
| 39>  C  -16.43105  -3.84452  8.39680
| 40>  C  -15.36744  -2.97324  7.41368
| 41>  C  -14.68561  -1.66675  8.24158
| 42>  H  -15.54590  -1.15153  8.82275
| 43>  H  -14.30555  -0.92809  7.43304
| 44>  H  -14.52297  -3.67355  7.06845
| 45>  H  -15.94818  -2.57483  6.50455
| 46>  H  -17.12006  -3.02850  8.82224
| 47>  H  -15.79810  -4.27272  9.28178
| 48>  C  -13.47291  -1.98230  9.27685
| 49>  C  -11.92573  -2.09424  8.61601
| 50>  C  -11.47221  -3.67579  8.26303
| 51>  H  -10.43156  -3.88190  8.72723
| 52>  H  -11.41971  -3.81388  7.11551
| 53>  H  -12.24333  -4.41632  8.70589
| 54>  H  -11.89663  -1.48039  7.64117
| 55>  H  -11.17437  -1.65482  9.37069
| 56>  H  -13.69431  -2.97334  9.83227
| 57>  H  -13.43463  -1.13130  10.06507
| 58>  H  16.94214  7.69168  -8.05254
| 59>  H  18.69905  4.31133  -5.43108
| 60>  H  -17.15607  -7.76430  5.66484
| 61>  H  -19.28204  -4.73044  8.43276
| 62> *
| 63> 
| 64>                          ****END OF INPUT****
================================================================================

                       ****************************
                       * Single Point Calculation *
                       ****************************

---------------------------------
CARTESIAN COORDINATES (ANGSTROEM)
---------------------------------
  C     17.133210    6.804020   -7.505600
  C     16.299330    5.691710   -7.381890
  C     16.839260    4.644410   -6.572000
  C     18.105880    4.931190   -6.053590
  S     18.485750    6.444170   -6.616630
  H     15.190630    5.733350   -7.636020
  C     15.973890    3.304780   -6.369200
  C     14.299840    3.476990   -6.266100
  C     13.758370    3.449000   -7.877460
  H     12.728810    3.970220   -7.904190
  H     14.492330    4.026320   -8.554030
  H     13.842650    2.603010   -5.680620
  H     14.032000    4.479000   -5.778370
  H     16.220450    2.803440   -5.339850
  H     16.231710    2.546340   -7.210570
  C     13.641980    1.932420   -8.454370
  C     13.217040    1.783930  -10.083510
  C     12.932950    3.215450  -10.918710
  H     12.389850    2.969330  -11.912000
  H     13.941140    3.734580  -11.148510
  H     12.268880    3.916550  -10.282210
  H     14.077770    1.232390  -10.619870
  H     12.259820    1.143960  -10.139770
  H     14.660450    1.395420   -8.328800
  H     12.849350    1.356740   -7.836870
  C    -17.418560   -6.971050    6.317120
  C    -16.572920   -5.990700    6.838370
  C    -17.226790   -5.050830    7.694710
  C    -18.595630   -5.290210    7.850440
  S    -18.920330   -6.633270    6.933310
  H    -15.451920   -5.942950    6.624260
  C    -16.431050   -3.844520    8.396800
  C    -15.367440   -2.973240    7.413680
  C    -14.685610   -1.666750    8.241580
  H    -15.545900   -1.151530    8.822750
  H    -14.305550   -0.928090    7.433040
  H    -14.522970   -3.673550    7.068450
  H    -15.948180   -2.574830    6.504550
  H    -17.120060   -3.028500    8.822240
  H    -15.798100   -4.272720    9.281780
  C    -13.472910   -1.982300    9.276850
  C    -11.925730   -2.094240    8.616010
  C    -11.472210   -3.675790    8.263030
  H    -10.431560   -3.881900    8.727230
  H    -11.419710   -3.813880    7.115510
  H    -12.243330   -4.416320    8.705890
  H    -11.896630   -1.480390    7.641170
  H    -11.174370   -1.654820    9.370690
  H    -13.694310   -2.973340    9.832270
  H    -13.434630   -1.131300   10.065070
  H     16.942140    7.691680   -8.052540
  H     18.699050    4.311330   -5.431080
  H    -17.156070   -7.764300    5.664840
  H    -19.282040   -4.730440    8.432760

----------------------------
CARTESIAN COORDINATES (A.U.)
----------------------------
  NO LB      ZA    FRAG    MASS        X           Y           Z
   0 C     4.0000    0    12.011         32.377074694960925         12.857734409722875        -14.183528470759347
   1 C     4.0000    0    12.011         30.801269866406678         10.755773133700927        -13.949750450731949
   2 C     4.0000    0    12.011         31.821589697894776          8.776662953645200        -12.419280152130465
   3 C     4.0000    0    12.011         34.215154613642113          9.318598614331137        -11.439627227044349
   4 S     6.0000    0    32.060         34.933004880134774         12.177716460431311        -12.503618629487370
   5 H     1.0000    0     1.008         28.706130501728182         10.834461329917408        -14.429986553145357
   6 C     4.0000    0    12.011         30.186277393383346          6.245129132860274        -12.036043692171237
   7 C     4.0000    0    12.011         27.022781358892470          6.570558870382852        -11.841212927763955
   8 C     4.0000    0    12.011         25.999551349158128          6.517665435894397        -14.886242030919304
   9 H     1.0000    0     1.008         24.053964910718165          7.502628491416831        -14.936754410479018
  10 H     1.0000    0     1.008         27.386534742410976          7.608642127529814        -16.164774041346401
  11 H     1.0000    0     1.008         26.158817467725015          4.918976023858357        -10.734816070875741
  12 H     1.0000    0     1.008         26.516637111183002          8.464083353833287        -10.919536800466542
  13 H     1.0000    0     1.008         30.652208268962966          5.297733832880194        -10.090854096219395
  14 H     1.0000    0     1.008         30.673486585230918          4.811885243849040        -13.626002569468559
  15 C     4.0000    0    12.011         25.779606124431037          3.651744575712105        -15.976443934839814
  16 C     4.0000    0    12.011         24.976585901082540          3.371139142086138        -19.055072368656280
  17 C     4.0000    0    12.011         24.439733603696851          6.076319897317089        -20.633371635707313
  18 H     1.0000    0     1.008         23.413423340364218          5.611220501236390        -22.510417707269951
  19 H     1.0000    0     1.008         26.344936594654921          7.057333425219627        -21.067630701282415
  20 H     1.0000    0     1.008         23.184823169943765          7.401206889809278        -19.430560951466433
  21 H     1.0000    0     1.008         26.603129876332577          2.328879590183211        -20.068645877846283
  22 H     1.0000    0     1.008         23.167702251170439          2.161771108160555        -19.161388360950692
  23 H     1.0000    0     1.008         27.704235500045815          2.636961641796393        -15.739151024203320
  24 H     1.0000    0     1.008         24.281752498901035          2.563867034936319        -14.809538047143439
  25 C     4.0000    0    12.011        -32.916308047275358        -13.173375365871742         11.937626755116618
  26 C     4.0000    0    12.011        -31.318280039386188        -11.320782350482043         12.922646502423071
  27 C     4.0000    0    12.011        -32.553915266573284         -9.544685448993476         14.540894579945194
  28 C     4.0000    0    12.011        -35.140647987730041         -9.997048090931544         14.835181630780751
  29 S     6.0000    0    32.060        -35.754242063414274        -12.535063672355822         13.102057101577552
  30 H     1.0000    0     1.008        -29.199897043260467        -11.230547927587303         12.518037239889189
  31 C     4.0000    0    12.011        -31.050184592766779         -7.265089916382931         15.867652401309968
  32 C     4.0000    0    12.011        -29.040252979466800         -5.618609330420022         14.009824844529305
  33 C     4.0000    0    12.011        -27.751781009575275         -3.149701033713246         15.574329110802712
  34 H     1.0000    0     1.008        -29.377493505326385         -2.176076334994339         16.672581248053721
  35 H     1.0000    0     1.008        -27.033571695117161         -1.753835927630974         14.046409942482020
  36 H     1.0000    0     1.008        -27.444435951154322         -6.942003439266414         13.357434691315673
  37 H     1.0000    0     1.008        -30.137692534480230         -4.865723541404456         12.291818124397478
  38 H     1.0000    0     1.008        -32.352224796299865         -5.723035596580511         16.671617487725424
  39 H     1.0000    0     1.008        -29.854082436301326         -8.074270646928010         17.540022235307593
  40 C     4.0000    0    12.011        -25.460110126968971         -3.746004115272097         17.530705885467363
  41 C     4.0000    0    12.011        -22.536363647088688         -3.957540058703242         16.281899267126843
  42 C     4.0000    0    12.011        -21.679335050832723         -6.946236425806398         15.614863736375321
  43 H     1.0000    0     1.008        -19.712791549567569         -7.335727879268907         16.492074607741564
  44 H     1.0000    0     1.008        -21.580124428801856         -7.207188707639584         13.446365203178004
  45 H     1.0000    0     1.008        -23.136540667222079         -8.345635319759102         16.451747852043685
  46 H     1.0000    0     1.008        -22.481372616591582         -2.797531671395682         14.439718642735050
  47 H     1.0000    0     1.008        -21.116499019105618         -3.127156600935566         17.708037785874534
  48 H     1.0000    0     1.008        -25.878495493019134         -5.618798303033414         18.580297574769904
  49 H     1.0000    0     1.008        -25.387771410562465         -2.137847175305112         19.020225818746773
  50 H     1.0000    0     1.008         32.016004722552594         14.535168709759413        -15.217095282446238
  51 H     1.0000    0     1.008         35.336083464500177          8.147232972958710        -10.263253811417030
  52 H     1.0000    0     1.008        -32.420273834382364        -14.672400621604774         10.704996192482463
  53 H     1.0000    0     1.008        -36.437774903314931         -8.939236092946445         15.935606953085774

--------------------------------
INTERNAL COORDINATES (ANGSTROEM)
--------------------------------
 C      0   0   0   0.000000     0.000     0.000
 C      1   0   0   1.395670     0.000     0.000
 C      2   1   0   1.429784   114.102     0.000
 C      3   2   1   1.398327   113.693     0.000
 S      1   2   3   1.658048   105.480     0.000
 H      2   1   3   1.138214   122.211   163.048
 C      3   2   1   1.607670   118.591   180.621
 C      7   3   2   1.686040   117.197   324.252
 C      8   7   3   1.700134   104.867    86.554
 H      9   8   7   1.154287   107.373   202.259
 H      9   8   7   1.153145   110.190   321.028
 H      8   7   3   1.147018   110.435   205.177
 H      8   7   3   1.146143   110.325   328.058
 H      7   3   2   1.171194   110.747   208.537
 H      7   3   2   1.161725   109.463    89.469
 C      9   8   7   1.626772   111.978    80.891
 C     16   9   8   1.690184   116.214   184.164
 C     17  16   9   1.681522   116.515   358.854
 H     18  17  16   1.158515   108.917   194.851
 H     18  17  16   1.157044   109.475    75.172
 H     18  17  16   1.156574   109.860   314.609
 H     17  16   9   1.154441   107.599   119.666
 H     17  16   9   1.152821   107.732   237.454
 H     16   9   8   1.158196   109.322   304.768
 H     16   9   8   1.158005   108.864    62.865
 C     25  16   9  34.435939   160.225    59.668
 C     26  25  16   1.395670    56.707   279.816
 C     27  26  25   1.429762   114.101   159.210
 C     28  27  26   1.398312   113.694     0.000
 S     26  25  16   1.658041   154.106   331.379
 H     27  26  25   1.142263   123.641   338.098
 C     28  27  26   1.606648   121.924   179.964
 C     32  28  27   1.690243   116.393    45.557
 C     33  32  28   1.690333   111.553   175.745
 H     34  33  32   1.159012   106.845   315.604
 H     34  33  32   1.159224   106.447   200.331
 H     33  32  28   1.150108   108.830   295.737
 H     33  32  28   1.150003   108.701    55.713
 H     32  28  27   1.149618   113.442   164.949
 H     32  28  27   1.169261   108.898   284.883
 C     34  33  32   1.625422   117.571    78.023
 C     41  34  33   1.686122   116.607    84.175
 C     42  41  34   1.682729   113.074   264.810
 H     43  42  41   1.157979   108.990   230.632
 H     43  42  41   1.156991   109.418   110.791
 H     43  42  41   1.157210   109.973   350.508
 H     42  41  34   1.152377   108.624    25.239
 H     42  41  34   1.152030   108.445   144.220
 H     41  34  33   1.157441   109.217   321.632
 H     41  34  33   1.160585   108.351   204.275
 H      1   2   3   1.059996   127.260   180.000
 H      4   3   2   1.059998   127.206   180.001
 H     26  25  16   1.060007    73.166   116.982
 H     29  28  27   1.059999   127.206   180.000

---------------------------
INTERNAL COORDINATES (A.U.)
---------------------------
 C      0   0   0   0.000000     0.000     0.000
 C      1   0   0   2.637433     0.000     0.000
 C      2   1   0   2.701901   114.102     0.000
 C      3   2   1   2.642455   113.693     0.000
 S      1   2   3   3.133257   105.480     0.000
 H      2   1   3   2.150913   122.211   163.048
 C      3   2   1   3.038055   118.591   180.621
 C      7   3   2   3.186153   117.197   324.252
 C      8   7   3   3.212787   104.867    86.554
 H      9   8   7   2.181286   107.373   202.259
 H      9   8   7   2.179128   110.190   321.028
 H      8   7   3   2.167550   110.435   205.177
 H      8   7   3   2.165896   110.325   328.058
 H      7   3   2   2.213236   110.747   208.537
 H      7   3   2   2.195343   109.463    89.469
 C      9   8   7   3.074153   111.978    80.891
 C     16   9   8   3.193984   116.214   184.164
 C     17  16   9   3.177616   116.515   358.854
 H     18  17  16   2.189277   108.917   194.851
 H     18  17  16   2.186496   109.475    75.172
 H     18  17  16   2.185607   109.860   314.609
 H     17  16   9   2.181578   107.599   119.666
 H     17  16   9   2.178517   107.732   237.454
 H     16   9   8   2.188673   109.322   304.768
 H     16   9   8   2.188313   108.864    62.865
 C     25  16   9  65.074494   160.225    59.668
 C     26  25  16   2.637434    56.707   279.816
 C     27  26  25   2.701859   114.101   159.210
 C     28  27  26   2.642427   113.694     0.000
 S     26  25  16   3.133243   154.106   331.379
 H     27  26  25   2.158564   123.641   338.098
 C     28  27  26   3.036124   121.924   179.964
 C     32  28  27   3.194096   116.393    45.557
 C     33  32  28   3.194267   111.553   175.745
 H     34  33  32   2.190215   106.845   315.604
 H     34  33  32   2.190617   106.447   200.331
 H     33  32  28   2.173388   108.830   295.737
 H     33  32  28   2.173191   108.701    55.713
 H     32  28  27   2.172464   113.442   164.949
 H     32  28  27   2.209582   108.898   284.883
 C     34  33  32   3.071603   117.571    78.023
 C     41  34  33   3.186308   116.607    84.175
 C     42  41  34   3.179896   113.074   264.810
 H     43  42  41   2.188263   108.990   230.632
 H     43  42  41   2.186395   109.418   110.791
 H     43  42  41   2.186811   109.973   350.508
 H     42  41  34   2.177676   108.624    25.239
 H     42  41  34   2.177022   108.445   144.220
 H     41  34  33   2.187246   109.217   321.632
 H     41  34  33   2.193187   108.351   204.275
 H      1   2   3   2.003102   127.260   180.000
 H      4   3   2   2.003106   127.206   180.001
 H     26  25  16   2.003124    73.166   116.982
 H     29  28  27   2.003108   127.206   180.000

----------------------------
SLATER BASIS SET DIM= 120
----------------------------
  0 C     2 shells
 l=0 nsto= 1
    2       1.625000000000        1.000000000000
 l=1 nsto= 1
    2       1.625000000000        1.000000000000
  1 C     2 shells
 l=0 nsto= 1
    2       1.625000000000        1.000000000000
 l=1 nsto= 1
    2       1.625000000000        1.000000000000
  2 C     2 shells
 l=0 nsto= 1
    2       1.625000000000        1.000000000000
 l=1 nsto= 1
    2       1.625000000000        1.000000000000
  3 C     2 shells
 l=0 nsto= 1
    2       1.625000000000        1.000000000000
 l=1 nsto= 1
    2       1.625000000000        1.000000000000
  4 S     2 shells
 l=0 nsto= 1
    3       1.925000000000        1.000000000000
 l=1 nsto= 1
    3       1.925000000000        1.000000000000
  5 H     1 shells
 l=0 nsto= 1
    1       1.200000000000        1.000000000000
  6 C     2 shells
 l=0 nsto= 1
    2       1.625000000000        1.000000000000
 l=1 nsto= 1
    2       1.625000000000        1.000000000000
  7 C     2 shells
 l=0 nsto= 1
    2       1.625000000000        1.000000000000
 l=1 nsto= 1
    2       1.625000000000        1.000000000000
  8 C     2 shells
 l=0 nsto= 1
    2       1.625000000000        1.000000000000
 l=1 nsto= 1
    2       1.625000000000        1.000000000000
  9 H     1 shells
 l=0 nsto= 1
    1       1.200000000000        1.000000000000
 10 H     1 shells
 l=0 nsto= 1
    1       1.200000000000        1.000000000000
 11 H     1 shells
 l=0 nsto= 1
    1       1.200000000000        1.000000000000
 12 H     1 shells
 l=0 nsto= 1
    1       1.200000000000        1.000000000000
 13 H     1 shells
 l=0 nsto= 1
    1       1.200000000000        1.000000000000
 14 H     1 shells
 l=0 nsto= 1
    1       1.200000000000        1.000000000000
 15 C     2 shells
 l=0 nsto= 1
    2       1.625000000000        1.000000000000
 l=1 nsto= 1
    2       1.625000000000        1.000000000000
 16 C     2 shells
 l=0 nsto= 1
    2       1.625000000000        1.000000000000
 l=1 nsto= 1
    2       1.625000000000        1.000000000000
 17 C     2 shells
 l=0 nsto= 1
    2       1.625000000000        1.000000000000
 l=1 nsto= 1
    2       1.625000000000        1.000000000000
 18 H     1 shells
 l=0 nsto= 1
    1       1.200000000000        1.000000000000
 19 H     1 shells
 l=0 nsto= 1
    1       1.200000000000        1.000000000000
 20 H     1 shells
 l=0 nsto= 1
    1       1.200000000000        1.000000000000
 21 H     1 shells
 l=0 nsto= 1
    1       1.200000000000        1.000000000000
 22 H     1 shells
 l=0 nsto= 1
    1       1.200000000000        1.000000000000
 23 H     1 shells
 l=0 nsto= 1
    1       1.200000000000        1.000000000000
 24 H     1 shells
 l=0 nsto= 1
    1       1.200000000000        1.000000000000
 25 C     2 shells
 l=0 nsto= 1
    2       1.625000000000        1.000000000000
 l=1 nsto= 1
    2       1.625000000000        1.000000000000
 26 C     2 shells
 l=0 nsto= 1
    2       1.625000000000        1.000000000000
 l=1 nsto= 1
    2       1.625000000000        1.000000000000
 27 C     2 shells
 l=0 nsto= 1
    2       1.625000000000        1.000000000000
 l=1 nsto= 1
    2       1.625000000000        1.000000000000
 28 C     2 shells
 l=0 nsto= 1
    2       1.625000000000        1.000000000000
 l=1 nsto= 1
    2       1.625000000000        1.000000000000
 29 S     2 shells
 l=0 nsto= 1
    3       1.925000000000        1.000000000000
 l=1 nsto= 1
    3       1.925000000000        1.000000000000
 30 H     1 shells
 l=0 nsto= 1
    1       1.200000000000        1.000000000000
 31 C     2 shells
 l=0 nsto= 1
    2       1.625000000000        1.000000000000
 l=1 nsto= 1
    2       1.625000000000        1.000000000000
 32 C     2 shells
 l=0 nsto= 1
    2       1.625000000000        1.000000000000
 l=1 nsto= 1
    2       1.625000000000        1.000000000000
 33 C     2 shells
 l=0 nsto= 1
    2       1.625000000000        1.000000000000
 l=1 nsto= 1
    2       1.625000000000        1.000000000000
 34 H     1 shells
 l=0 nsto= 1
    1       1.200000000000        1.000000000000
 35 H     1 shells
 l=0 nsto= 1
    1       1.200000000000        1.000000000000
 36 H     1 shells
 l=0 nsto= 1
    1       1.200000000000        1.000000000000
 37 H     1 shells
 l=0 nsto= 1
    1       1.200000000000        1.000000000000
 38 H     1 shells
 l=0 nsto= 1
    1       1.200000000000        1.000000000000
 39 H     1 shells
 l=0 nsto= 1
    1       1.200000000000        1.000000000000
 40 C     2 shells
 l=0 nsto= 1
    2       1.625000000000        1.000000000000
 l=1 nsto= 1
    2       1.625000000000        1.000000000000
 41 C     2 shells
 l=0 nsto= 1
    2       1.625000000000        1.000000000000
 l=1 nsto= 1
    2       1.625000000000        1.000000000000
 42 C     2 shells
 l=0 nsto= 1
    2       1.625000000000        1.000000000000
 l=1 nsto= 1
    2       1.625000000000        1.000000000000
 43 H     1 shells
 l=0 nsto= 1
    1       1.200000000000        1.000000000000
 44 H     1 shells
 l=0 nsto= 1
    1       1.200000000000        1.000000000000
 45 H     1 shells
 l=0 nsto= 1
    1       1.200000000000        1.000000000000
 46 H     1 shells
 l=0 nsto= 1
    1       1.200000000000        1.000000000000
 47 H     1 shells
 l=0 nsto= 1
    1       1.200000000000        1.000000000000
 48 H     1 shells
 l=0 nsto= 1
    1       1.200000000000        1.000000000000
 49 H     1 shells
 l=0 nsto= 1
    1       1.200000000000        1.000000000000
 50 H     1 shells
 l=0 nsto= 1
    1       1.200000000000        1.000000000000
 51 H     1 shells
 l=0 nsto= 1
    1       1.200000000000        1.000000000000
 52 H     1 shells
 l=0 nsto= 1
    1       1.200000000000        1.000000000000
 53 H     1 shells
 l=0 nsto= 1
    1       1.200000000000        1.000000000000
------------------------------------------------------------------------------
                           ORCA NDO INTEGRAL CALCULATION
------------------------------------------------------------------------------

--------------
NDO PARAMETERS
--------------

Gamma integral treatment              ... Mataga-Nishimoto
Nuclear repulsuion treatment          ... Direct (ZA*ZB/RAB)
Interaction factors:
s-s (sigma) =    1.0000
s-p (sigma) =    1.0000
s-d (sigma) =    1.0000
p-p (sigma) =    1.2670  p-p(pi) =    0.5850
p-d (sigma) =    1.0000  p-d(pi) =    1.0000
d-d (sigma) =    1.0000  d-d(pi) =    1.0000 d-d (delta) =    1.0000

fGamma parameter for Mataga-Nishimoto gamma integrals:    1.2000

--------------------------
Parameters for Element H :
--------------------------
 One-electron parameters (in eV)
  U(s)  =   -13.060000 Beta(s) =    12.000000 Neff(s) =     1.000000
 One-center electron repulsion parameters (in eV)
  G(s,s)=    12.850000
--------------------------
Parameters for Element C :
--------------------------
 One-electron parameters (in eV)
  U(s)  =   -50.870766 Beta(s) =    17.000000 Neff(s) =     2.000000
  U(p)  =   -41.599980 Beta(p) =    17.000000 Neff(p) =     2.000000 
 One-center electron repulsion parameters (in eV)
  G(s,s)=    11.110000
  G(s,p)=    11.110000 G(p,p)  =    11.110000
 Slater-Condon parameters (in eV)
 F2(p,p)=     4.5098 G1(s,p)=    6.8977
--------------------------
Parameters for Element S :
--------------------------
 One-electron parameters (in eV)
  U(s)  =   -69.509597 Beta(s) =    15.000000 Neff(s) =     2.000000
  U(p)  =   -60.725746 Beta(p) =    15.000000 Neff(p) =     4.000000 
 One-center electron repulsion parameters (in eV)
  G(s,s)=    10.090000
  G(s,p)=    10.090000 G(p,p)  =    10.090000
 Slater-Condon parameters (in eV)
 F2(p,p)=     4.5377 G1(s,p)=    3.0756

 Number of atoms                    ....   54
 Number of basis functions          ....  120

 Overlap integrals                  .... done
 One electron matrix                .... done
 Nuclear repulsion                  .... done
 Integral list                      .... done
 Electron-electron repulsion        .... done
-------------------------------------------------------------------------------
                                 ORCA SCF
-------------------------------------------------------------------------------

------------
SCF SETTINGS
------------
Hamiltonian:
 ZDO-Hamiltonian        Method          .... INDO


General Settings:
 Integral files         IntName         .... /Users/mattyjones/GoogleDrive/Boise/Code/MorphCT/tests/output_EZ/donor_polymer/chromophores/input_orca/pair/00002-00022
 Hartree-Fock type      HFTyp           .... RHF
 Total Charge           Charge          ....    0
 Multiplicity           Mult            ....    1
 Number of Electrons    NEL             ....  124
 Basis Dimension        Dim             ....  120
 Nuclear Repulsion      ENuc            ....    660.7316784502 Eh

Convergence Acceleration:
 DIIS                   CNVDIIS         .... on
   Start iteration      DIISMaxIt       ....    12
   Startup error        DIISStart       ....  0.200000
   # of expansion vecs  DIISMaxEq       ....     5
   Bias factor          DIISBfac        ....   1.050
   Max. coefficient     DIISMaxC        ....  10.000
 Newton-Raphson         CNVNR           .... off
 SOSCF                  CNVSOSCF        .... on
   Start iteration      SOSCFMaxIt      ....   150
   Startup grad/error   SOSCFStart      ....  0.003300
 Level Shifting         CNVShift        .... on
   Level shift para.    LevelShift      ....    0.2500
   Turn off err/grad.   ShiftErr        ....    0.0010
 Zerner damping         CNVZerner       .... off
 Static damping         CNVDamp         .... on
   Fraction old density DampFac         ....    0.7000
   Max. Damping (<1)    DampMax         ....    0.9800
   Min. Damping (>=0)   DampMin         ....    0.0000
   Turn off err/grad.   DampErr         ....    0.1000
 Fernandez-Rico         CNVRico         .... off

SCF Procedure:
 Maximum # iterations   MaxIter         ....   125
 SCF integral mode      SCFMode         .... Conventional
 Integral Buffer length BufferLength    .... 1048576
 Integral index format  IndFormat       ....     0
 Integral value format  ValFormat       ....     0
 Integral Storage       Thresh          ....  1.000e-08 Eh

Convergence Tolerance:
 Convergence Check Mode ConvCheckMode   .... Total+1el-Energy
 Energy Change          TolE            ....  1.000e-06 Eh
 1-El. energy change                    ....  1.000e-03 Eh
 Orbital Gradient       TolG            ....  5.000e-05
 Orbital Rotation angle TolX            ....  5.000e-05
 DIIS Error             TolErr          ....  1.000e-06


Diagonalization of the overlap matrix:
Smallest eigenvalue                        ... 1.695e-01
Time for diagonalization                   ...    0.004 sec
Threshold for overlap eigenvalues          ... 1.000e-08
Number of eigenvalues below threshold      ... 0
Time for construction of square roots      ...    0.000 sec
Total time needed                          ...    0.005 sec

-------------------------------
INITIAL GUESS: EXTENDED HUECKEL
-------------------------------
EHT matrix was read from disk
EHT matrix was diagonalized
Initial density was built
                      ------------------
                      INITIAL GUESS DONE
                      ------------------

 InCore treatment chosen:
   Memory dedicated               ...    1024 MB
   Memory needed                  ...      0 MB
   Number of tiny    integrals    ...       0
   Number of small   integrals    ...       0
   Number of regular integrals    ...    7392

--------------
SCF ITERATIONS
--------------
ITER       Energy         Delta-E        Max-DP      RMS-DP      [F,P]     Damp
  0    -18.0812506325   0.000000000000 0.04202093  0.00144407  0.0971577 0.7000
  1    -18.1228428684  -0.041592235929 0.03976894  0.00136027  0.0666217 0.7000
                               ***Turning on DIIS***
  2    -18.1536249656  -0.030782097193 0.10109510  0.00349171  0.0438829 0.0000
  3    -18.2323864397  -0.078761474097 0.01684987  0.00072047  0.0197272 0.0000
  4    -18.2201619878   0.012224451909 0.01130592  0.00049580  0.0073703 0.0000
  5    -18.2365007788  -0.016338791002 0.00801818  0.00033607  0.0042540 0.0000
  6    -18.2395969796  -0.003096200776 0.00635071  0.00023952  0.0023034 0.0000
                      *** Initiating the SOSCF procedure ***
                           *** Shutting down DIIS ***
                      *** Re-Reading the Fockian *** 
                      *** Removing any level shift *** 
ITER      Energy       Delta-E        Grad      Rot      Max-DP    RMS-DP
  7    -18.23503363   0.0045633530  0.003053  0.003053  0.003785  0.000135
  8    -18.23264273   0.0023908997  0.000824  0.002275  0.001904  0.000063
  9    -18.23265759  -0.0000148650  0.000366  0.002241  0.002157  0.000067
 10    -18.23266307  -0.0000054771  0.000027  0.000064  0.000112  0.000004
                 **** Energy Check signals convergence ****
              ***Rediagonalizing the Fockian in SOSCF/NRSCF***

               *****************************************************
               *                     SUCCESS                       *
               *           SCF CONVERGED AFTER  11 CYCLES          *
               *****************************************************


----------------
TOTAL SCF ENERGY
----------------

Total Energy       :          -18.23266312 Eh            -496.13599 eV

Components:
Nuclear Repulsion  :          660.73167845 Eh           17979.42303 eV
Electronic Energy  :         -678.96434157 Eh          -18475.55901 eV

One Electron Energy:        -1267.40003856 Eh          -34487.70837 eV
Two Electron Energy:          588.43569700 Eh           16012.14936 eV


---------------
SCF CONVERGENCE
---------------

  Last Energy change         ...   -4.6755e-08  Tolerance :   1.0000e-06
  Last MAX-Density change    ...    4.2143e-05  Tolerance :   1.0000e-05
  Last RMS-Density change    ...    1.2641e-06  Tolerance :   1.0000e-06
  Last Orbital Gradient      ...    7.0874e-06  Tolerance :   5.0000e-05
  Last Orbital Rotation      ...    2.0122e-05  Tolerance :   5.0000e-05

             **** THE GBW FILE WAS UPDATED (/Users/mattyjones/GoogleDrive/Boise/Code/MorphCT/tests/output_EZ/donor_polymer/chromophores/input_orca/pair/00002-00022.gbw) ****
             **** DENSITY FILE WAS UPDATED (/Users/mattyjones/GoogleDrive/Boise/Code/MorphCT/tests/output_EZ/donor_polymer/chromophores/input_orca/pair/00002-00022.scfp.tmp) ****
             **** ENERGY FILE WAS UPDATED (/Users/mattyjones/GoogleDrive/Boise/Code/MorphCT/tests/output_EZ/donor_polymer/chromophores/input_orca/pair/00002-00022.en.tmp) ****
----------------
ORBITAL ENERGIES
----------------

  NO   OCC          E(Eh)            E(eV) 
   0   2.0000      -1.563312       -42.5399 
   1   2.0000      -1.558122       -42.3987 
   2   2.0000      -1.420731       -38.6600 
   3   2.0000      -1.411970       -38.4217 
   4   2.0000      -1.296521       -35.2801 
   5   2.0000      -1.292241       -35.1637 
   6   2.0000      -1.176682       -32.0191 
   7   2.0000      -1.164380       -31.6844 
   8   2.0000      -1.116102       -30.3707 
   9   2.0000      -1.108461       -30.1628 
  10   2.0000      -1.039580       -28.2884 
  11   2.0000      -1.033512       -28.1233 
  12   2.0000      -0.987536       -26.8722 
  13   2.0000      -0.949257       -25.8306 
  14   2.0000      -0.914379       -24.8815 
  15   2.0000      -0.910855       -24.7856 
  16   2.0000      -0.858661       -23.3653 
  17   2.0000      -0.846632       -23.0380 
  18   2.0000      -0.832416       -22.6512 
  19   2.0000      -0.818732       -22.2788 
  20   2.0000      -0.782377       -21.2896 
  21   2.0000      -0.772566       -21.0226 
  22   2.0000      -0.736061       -20.0292 
  23   2.0000      -0.728780       -19.8311 
  24   2.0000      -0.709290       -19.3008 
  25   2.0000      -0.708712       -19.2850 
  26   2.0000      -0.684558       -18.6278 
  27   2.0000      -0.658399       -17.9160 
  28   2.0000      -0.646221       -17.5846 
  29   2.0000      -0.624192       -16.9851 
  30   2.0000      -0.622917       -16.9504 
  31   2.0000      -0.616128       -16.7657 
  32   2.0000      -0.592619       -16.1260 
  33   2.0000      -0.580173       -15.7873 
  34   2.0000      -0.577105       -15.7038 
  35   2.0000      -0.575249       -15.6533 
  36   2.0000      -0.570527       -15.5248 
  37   2.0000      -0.568281       -15.4637 
  38   2.0000      -0.552783       -15.0420 
  39   2.0000      -0.552196       -15.0260 
  40   2.0000      -0.541885       -14.7454 
  41   2.0000      -0.537566       -14.6279 
  42   2.0000      -0.528903       -14.3922 
  43   2.0000      -0.515019       -14.0144 
  44   2.0000      -0.506909       -13.7937 
  45   2.0000      -0.506638       -13.7863 
  46   2.0000      -0.495663       -13.4877 
  47   2.0000      -0.495448       -13.4818 
  48   2.0000      -0.489191       -13.3116 
  49   2.0000      -0.488419       -13.2906 
  50   2.0000      -0.475688       -12.9441 
  51   2.0000      -0.475298       -12.9335 
  52   2.0000      -0.472795       -12.8654 
  53   2.0000      -0.468440       -12.7469 
  54   2.0000      -0.464854       -12.6493 
  55   2.0000      -0.447603       -12.1799 
  56   2.0000      -0.437934       -11.9168 
  57   2.0000      -0.436798       -11.8859 
  58   2.0000      -0.356423        -9.6988 
  59   2.0000      -0.354580        -9.6486 
  60   2.0000      -0.304644        -8.2898 
  61   2.0000      -0.304435        -8.2841 
  62   0.0000       0.007626         0.2075 
  63   0.0000       0.008086         0.2200 
  64   0.0000       0.069136         1.8813 
  65   0.0000       0.071871         1.9557 
  66   0.0000       0.079721         2.1693 
  67   0.0000       0.082265         2.2385 
  68   0.0000       0.087935         2.3928 
  69   0.0000       0.088927         2.4198 
  70   0.0000       0.104457         2.8424 
  71   0.0000       0.105785         2.8785 
  72   0.0000       0.107175         2.9164 
  73   0.0000       0.108888         2.9630 
  74   0.0000       0.120542         3.2801 
  75   0.0000       0.123955         3.3730 
  76   0.0000       0.142376         3.8743 
  77   0.0000       0.144255         3.9254 
  78   0.0000       0.154733         4.2105 
  79   0.0000       0.156407         4.2560 
  80   0.0000       0.165093         4.4924 
  81   0.0000       0.165481         4.5030 
  82   0.0000       0.168672         4.5898 
  83   0.0000       0.172633         4.6976 
  84   0.0000       0.205917         5.6033 
  85   0.0000       0.206820         5.6279 
  86   0.0000       0.230723         6.2783 
  87   0.0000       0.232132         6.3166 
  88   0.0000       0.235877         6.4186 
  89   0.0000       0.236535         6.4365 
  90   0.0000       0.237283         6.4568 
  91   0.0000       0.238981         6.5030 
  92   0.0000       0.239555         6.5186 
  93   0.0000       0.239853         6.5267 
  94   0.0000       0.241566         6.5733 
  95   0.0000       0.243285         6.6201 
  96   0.0000       0.244394         6.6503 
  97   0.0000       0.245519         6.6809 
  98   0.0000       0.246089         6.6964 
  99   0.0000       0.246324         6.7028 
 100   0.0000       0.255119         6.9422 
 101   0.0000       0.259768         7.0686 
 102   0.0000       0.266232         7.2445 
 103   0.0000       0.266461         7.2508 
 104   0.0000       0.267389         7.2760 
 105   0.0000       0.270223         7.3531 
 106   0.0000       0.280446         7.6313 
 107   0.0000       0.283671         7.7191 
 108   0.0000       0.299258         8.1432 
 109   0.0000       0.302342         8.2271 
 110   0.0000       0.310384         8.4460 
 111   0.0000       0.310438         8.4474 
 112   0.0000       0.341802         9.3009 
 113   0.0000       0.342802         9.3281 
 114   0.0000       0.346926         9.4403 
 115   0.0000       0.351586         9.5671 
 116   0.0000       0.413822        11.2607 
 117   0.0000       0.417043        11.3483 
 118   0.0000       0.427555        11.6344 
 119   0.0000       0.430037        11.7019 
-------
TIMINGS
-------

Total SCF time: 0 days 0 hours 0 min 0 sec 

Total time                  ....       0.139 sec
Sum of individual times     ....       0.113 sec  ( 81.4%)

Fock matrix formation       ....       0.056 sec  ( 40.4%)
Diagonalization             ....       0.028 sec  ( 20.1%)
Density matrix formation    ....       0.006 sec  (  4.2%)
Population analysis         ....       0.000 sec  (  0.0%)
Initial guess               ....       0.003 sec  (  2.5%)
Orbital Transformation      ....       0.000 sec  (  0.0%)
Orbital Orthonormalization  ....       0.000 sec  (  0.0%)
DIIS solution               ....       0.013 sec  (  9.4%)
SOSCF solution              ....       0.007 sec  (  4.7%)

-------------------------   --------------------
FINAL SINGLE POINT ENERGY       -18.232663115831
-------------------------   --------------------


                            ***************************************
                            *     ORCA property calculations      *
                            ***************************************

                                    ---------------------
                                    Active property flags
                                    ---------------------
   (+) Dipole Moment


------------------------------------------------------------------------------
                       ORCA ELECTRIC PROPERTIES CALCULATION
------------------------------------------------------------------------------

Dipole Moment Calculation                       ... on
Quadrupole Moment Calculation                   ... off
Polarizability Calculation                      ... off
GBWName                                         ... /Users/mattyjones/GoogleDrive/Boise/Code/MorphCT/tests/output_EZ/donor_polymer/chromophores/input_orca/pair/00002-00022.gbw
Electron density file                           ... /Users/mattyjones/GoogleDrive/Boise/Code/MorphCT/tests/output_EZ/donor_polymer/chromophores/input_orca/pair/00002-00022.scfp.tmp

-------------
DIPOLE MOMENT
-------------
                                X             Y             Z
Electronic contribution:    -12.69491      -5.22801      11.68665
Nuclear contribution   :      7.21350       2.90968      -6.69260
                        -----------------------------------------
Total Dipole Moment    :     -5.48141      -2.31833       4.99405
                        -----------------------------------------
Magnitude (a.u.)       :      7.76924
Magnitude (Debye)      :     19.74783


Timings for individual modules:

Sum of individual times         ...        0.238 sec (=   0.004 min)
STO integral calculation        ...        0.052 sec (=   0.001 min)  21.9 %
SCF iterations                  ...        0.186 sec (=   0.003 min)  78.1 %
                             ****ORCA TERMINATED NORMALLY****
TOTAL RUN TIME: 0 days 0 hours 0 minutes 0 seconds 557 msec

