
                                 *****************
                                 * O   R   C   A *
                                 *****************

           --- An Ab Initio, DFT and Semiempirical electronic structure package ---

                  #######################################################
                  #                        -***-                        #
                  #  Department of molecular theory and spectroscopy    #
                  #              Directorship: Frank Neese              #
                  # Max Planck Institute for Chemical Energy Conversion #
                  #                  D-45470 Muelheim/Ruhr              #
                  #                       Germany                       #
                  #                                                     #
                  #                  All rights reserved                #
                  #                        -***-                        #
                  #######################################################


                         Program Version 3.0.3 - RELEASE   -


 With contributions from (in alphabetic order):
   Ute Becker             : Parallelization
   Dmytro Bykov           : SCF Hessian
   Dmitry Ganyushin       : Spin-Orbit,Spin-Spin,Magnetic field MRCI
   Andreas Hansen         : Spin unrestricted coupled pair/coupled cluster methods
   Dimitrios Liakos       : Extrapolation schemes; parallel MDCI
   Robert Izsak           : Overlap fitted RIJCOSX, COSX-SCS-MP3
   Christian Kollmar      : KDIIS, OOCD, Brueckner-CCSD(T), CCSD density
   Simone Kossmann        : Meta GGA functionals, TD-DFT gradient, OOMP2, MP2 Hessian
   Taras Petrenko         : DFT Hessian,TD-DFT gradient, ASA and ECA modules, normal mode analysis, Resonance Raman, ABS, FL, XAS/XES, NRVS
   Christoph Reimann      : Effective Core Potentials
   Michael Roemelt        : Restricted open shell CIS
   Christoph Riplinger    : Improved optimizer, TS searches, QM/MM, DLPNO-CCSD
   Barbara Sandhoefer     : DKH picture change effects
   Igor Schapiro          : Molecular dynamics
   Kantharuban Sivalingam : CASSCF convergence, NEVPT2
   Boris Wezisla          : Elementary symmetry handling
   Frank Wennmohs         : Technical directorship


 We gratefully acknowledge several colleagues who have allowed us to
 interface, adapt or use parts of their codes:
   Stefan Grimme, W. Hujo, H. Kruse, T. Risthaus : VdW corrections, initial TS optimization,
                                                   DFT functionals, gCP
   Ed Valeev                                     : LibInt (2-el integral package), F12 methods
   Garnet Chan, S. Sharma, R. Olivares           : DMRG
   Ulf Ekstrom                                   : XCFun DFT Library
   Mihaly Kallay                                 : mrcc  (arbitrary order and MRCC methods)
   Andreas Klamt, Michael Diedenhofen            : otool_cosmo (COSMO solvation model)
   Frank Weinhold                                : gennbo (NPA and NBO analysis)
   Christopher J. Cramer and Donald G. Truhlar   : smd solvation model


 Your calculation uses the libint2 library for the computation of 2-el integrals
 For citations please refer to: http://libint.valeyev.net

 This ORCA versions uses:
   CBLAS   interface :  Fast vector & matrix operations
   LAPACKE interface :  Fast linear algebra routines
   SCALAPACK package :  Parallel linear algebra routines


leaving
================================================================================
                                        WARNINGS
                       Please study these warnings very carefully!
================================================================================
Now building the actual basis set

WARNING: Direct SCF is incompatible with Method<>HF and Method<>DFT
  ===> : conventional SCF is chosen

WARNING: The NDO methods need Guess=HUECKEL or Guess=HCORE or Guess=MOREAD
  ===> : Guess is set to Hueckel

WARNING: The NDO methods need %rel::SOCType==1
  ===> : %rel::SOCType is set to 1

WARNING: The NDO methods cannot have frozencore=1
  ===> : %method FrozenCore=0 end


INFO   : the flag for use of LIBINT has been found!

================================================================================
                                       INPUT FILE
================================================================================
NAME = /Users/mattyjones/GoogleDrive/Boise/Code/MorphCT/tests/output_EZ/donor_polymer/chromophores/input_orca/pair/00002-00023.inp
|  1> # ================================================================
|  2> # Orca input file made by Matty Jones
|  3> # ================================================================
|  4> ! ZINDO/S 
|  5> ! NOPOP
|  6> ! NOMOPRINT
|  7> * xyz 0   1
|  8>  C  -21.11277  6.73146  -9.10508
|  9>  C  -21.94665  5.61915  -8.98138
| 10>  C  -21.40672  4.57185  -8.17149
| 11>  C  -20.14010  4.85863  -7.65308
| 12>  S  -19.76023  6.37162  -8.21612
| 13>  H  -23.05535  5.66079  -9.23551
| 14>  C  -22.27209  3.23223  -7.96869
| 15>  C  -23.94613  3.40443  -7.86559
| 16>  C  -24.48760  3.37644  -9.47695
| 17>  H  -25.51717  3.89766  -9.50367
| 18>  H  -23.75365  3.95376  -10.15351
| 19>  H  -24.40333  2.53045  -7.28010
| 20>  H  -24.21398  4.40644  -7.37786
| 21>  H  -22.02553  2.73088  -6.93934
| 22>  H  -22.01427  2.47378  -8.81005
| 23>  C  -24.60400  1.85986  -10.05386
| 24>  C  -25.02894  1.71137  -11.68300
| 25>  C  -25.31303  3.14289  -12.51819
| 26>  H  -25.85613  2.89677  -13.51149
| 27>  H  -24.30484  3.66202  -12.74800
| 28>  H  -25.97709  3.84400  -11.88170
| 29>  H  -24.16821  1.15983  -12.21936
| 30>  H  -25.98616  1.07140  -11.73926
| 31>  H  -23.58553  1.32286  -9.92829
| 32>  H  -25.39663  1.28419  -9.43636
| 33>  C  27.20703  -4.49232  7.09124
| 34>  C  25.84432  -4.73178  7.27446
| 35>  C  25.17990  -3.74594  8.06877
| 36>  C  26.02222  -2.72287  8.51502
| 37>  S  27.52360  -3.08678  7.91180
| 38>  H  25.29506  -5.63097  6.83291
| 39>  C  23.61449  -3.73693  8.45751
| 40>  C  22.90928  -5.02783  9.28759
| 41>  C  23.02737  -4.77306  10.95669
| 42>  H  23.16695  -5.81033  11.45246
| 43>  H  23.98092  -4.14654  11.15482
| 44>  H  21.79901  -5.10207  8.99772
| 45>  H  23.45642  -6.00073  9.01819
| 46>  H  23.36930  -2.78225  9.07759
| 47>  H  22.99603  -3.65020  7.46515
| 48>  C  21.74672  -4.03331  11.63729
| 49>  C  21.74715  -2.35074  11.50060
| 50>  C  20.59563  -1.64118  10.49104
| 51>  H  21.12762  -0.93277  9.74519
| 52>  H  19.83029  -1.02504  11.10023
| 53>  H  20.03491  -2.46799  9.90608
| 54>  H  21.74662  -1.99317  12.58489
| 55>  H  22.75759  -2.06570  11.02962
| 56>  H  20.77198  -4.42758  11.15805
| 57>  H  21.72517  -4.28113  12.76904
| 58>  H  -21.30384  7.61913  -9.65203
| 59>  H  -19.54693  4.23878  -7.03057
| 60>  H  27.89462  -5.08422  6.54309
| 61>  H  25.75672  -1.88927  9.11354
| 62> *
| 63> 
| 64>                          ****END OF INPUT****
================================================================================

                       ****************************
                       * Single Point Calculation *
                       ****************************

---------------------------------
CARTESIAN COORDINATES (ANGSTROEM)
---------------------------------
  C    -21.112770    6.731460   -9.105080
  C    -21.946650    5.619150   -8.981380
  C    -21.406720    4.571850   -8.171490
  C    -20.140100    4.858630   -7.653080
  S    -19.760230    6.371620   -8.216120
  H    -23.055350    5.660790   -9.235510
  C    -22.272090    3.232230   -7.968690
  C    -23.946130    3.404430   -7.865590
  C    -24.487600    3.376440   -9.476950
  H    -25.517170    3.897660   -9.503670
  H    -23.753650    3.953760  -10.153510
  H    -24.403330    2.530450   -7.280100
  H    -24.213980    4.406440   -7.377860
  H    -22.025530    2.730880   -6.939340
  H    -22.014270    2.473780   -8.810050
  C    -24.604000    1.859860  -10.053860
  C    -25.028940    1.711370  -11.683000
  C    -25.313030    3.142890  -12.518190
  H    -25.856130    2.896770  -13.511490
  H    -24.304840    3.662020  -12.748000
  H    -25.977090    3.844000  -11.881700
  H    -24.168210    1.159830  -12.219360
  H    -25.986160    1.071400  -11.739260
  H    -23.585530    1.322860   -9.928290
  H    -25.396630    1.284190   -9.436360
  C     27.207030   -4.492320    7.091240
  C     25.844320   -4.731780    7.274460
  C     25.179900   -3.745940    8.068770
  C     26.022220   -2.722870    8.515020
  S     27.523600   -3.086780    7.911800
  H     25.295060   -5.630970    6.832910
  C     23.614490   -3.736930    8.457510
  C     22.909280   -5.027830    9.287590
  C     23.027370   -4.773060   10.956690
  H     23.166950   -5.810330   11.452460
  H     23.980920   -4.146540   11.154820
  H     21.799010   -5.102070    8.997720
  H     23.456420   -6.000730    9.018190
  H     23.369300   -2.782250    9.077590
  H     22.996030   -3.650200    7.465150
  C     21.746720   -4.033310   11.637290
  C     21.747150   -2.350740   11.500600
  C     20.595630   -1.641180   10.491040
  H     21.127620   -0.932770    9.745190
  H     19.830290   -1.025040   11.100230
  H     20.034910   -2.467990    9.906080
  H     21.746620   -1.993170   12.584890
  H     22.757590   -2.065700   11.029620
  H     20.771980   -4.427580   11.158050
  H     21.725170   -4.281130   12.769040
  H    -21.303840    7.619130   -9.652030
  H    -19.546930    4.238780   -7.030570
  H     27.894620   -5.084220    6.543090
  H     25.756720   -1.889270    9.113540

----------------------------
CARTESIAN COORDINATES (A.U.)
----------------------------
  NO LB      ZA    FRAG    MASS        X           Y           Z
   0 C     4.0000    0    12.011        -39.897353228468589         12.720615881445550        -17.206107627443707
   1 C     4.0000    0    12.011        -41.473158057022843         10.618654605423602        -16.972348504677651
   2 C     4.0000    0    12.011        -40.452838225534734          8.639544425367875        -15.441878206076169
   3 C     4.0000    0    12.011        -38.059273309787400          9.181480086053810        -14.462225280990053
   4 S     6.0000    0    32.060        -37.341423043294732         12.040616829415326        -15.526216683433073
   5 H     1.0000    0     1.008        -43.568297421701331         10.697342801640083        -17.452584607091058
   6 C     4.0000    0    12.011        -42.088150530046164          6.108029501844287        -15.058641746116939
   7 C     4.0000    0    12.011        -45.251627667275699          6.433440342105527        -14.863810981709658
   8 C     4.0000    0    12.011        -46.274857677010040          6.380546907617071        -17.908840084865005
   9 H     1.0000    0     1.008        -48.220463012711349          7.365509963139506        -17.959333567163380
  10 H     1.0000    0     1.008        -44.887893181018541          7.471523599252488        -19.187353198030770
  11 H     1.0000    0     1.008        -46.115610455704498          4.781857495581032        -13.757395227560105
  12 H     1.0000    0     1.008        -45.757790812246505          8.326964825555960        -13.942134854412245
  13 H     1.0000    0     1.008        -41.622219654466548          5.160615304602867        -13.113452150165097
  14 H     1.0000    0     1.008        -41.600941338198595          4.674766715571714        -16.648581726152923
  15 C     4.0000    0    12.011        -46.494821798998473          3.514626047434779        -18.999041988785514
  16 C     4.0000    0    12.011        -47.297842022346970          3.234020613808813        -22.077670422601983
  17 C     4.0000    0    12.011        -47.834694319732662          5.939201369039763        -23.655950792391675
  18 H     1.0000    0     1.008        -48.861004583065295          5.474101972959065        -25.533015761215655
  19 H     1.0000    0     1.008        -45.929491328774589          6.920214896942302        -24.090228755228114
  20 H     1.0000    0     1.008        -49.089585856224410          7.264107258793291        -22.453159005412136
  21 H     1.0000    0     1.008        -45.671298047096933          2.191761061905885        -23.091243931791986
  22 H     1.0000    0     1.008        -49.106725672259074          2.024652579883229        -22.183986414896392
  23 H     1.0000    0     1.008        -44.570192423383695          2.499843113519067        -18.761749078149023
  24 H     1.0000    0     1.008        -47.992675424528471          2.426767403920332        -17.832136101089144
  25 C     4.0000    0    12.011         51.413835617379512         -8.489254505937119         13.400501549907737
  26 C     4.0000    0    12.011         48.838686917423679         -8.941768325965899         13.746737172164789
  27 C     4.0000    0    12.011         47.583115079523722         -7.078800714100973         15.247765537599779
  28 C     4.0000    0    12.011         49.174869196648274         -5.145478598270159         16.091055824862135
  29 S     6.0000    0    32.060         52.012066219594956         -5.833168835665441         14.951135226358160
  30 H     1.0000    0     1.008         47.800735941106097        -10.640991168326551         12.912328597731859
  31 C     4.0000    0    12.011         44.624918892222055         -7.061774281634343         15.982377674900324
  32 C     4.0000    0    12.011         43.292265125319453         -9.501221747913286         17.551001544145677
  33 C     4.0000    0    12.011         43.515422884474212         -9.019776220774169         20.705143434273641
  34 H     1.0000    0     1.008         43.779190858246942        -10.979932447706666         21.642012959687779
  35 H     1.0000    0     1.008         45.317371239474824         -7.835825003349827         21.079554873187458
  36 H     1.0000    0     1.008         41.194158890610701         -9.641515016095601         17.003226629705924
  37 H     1.0000    0     1.008         44.326209882233130        -11.339736303605273         17.041909323667294
  38 H     1.0000    0     1.008         44.161576941445908         -5.257690536102403         17.154159056022216
  39 H     1.0000    0     1.008         43.456198867437124         -6.897878334039353         14.107089048642232
  40 C     4.0000    0    12.011         41.095345111067964         -7.621851313205924         21.991291041020443
  41 C     4.0000    0    12.011         41.096157693305550         -4.442254812054043         21.732984375774748
  42 C     4.0000    0    12.011         38.920100255572549         -3.101380736468880         19.825192460013209
  43 H     1.0000    0     1.008         39.925415661557317         -1.762679845937726         18.415740223028042
  44 H     1.0000    0     1.008         37.473817256237261         -1.937044876314640         20.976394723536696
  45 H     1.0000    0     1.008         37.860493017760227         -4.663825201256310         18.719778260714630
  46 H     1.0000    0     1.008         41.095156138454570         -3.766545438347821         23.781995525524220
  47 H     1.0000    0     1.008         43.005612568064940         -3.903607274841130         20.842961161220515
  48 H     1.0000    0     1.008         39.253353459289556         -8.366913636027055         21.085658688600020
  49 H     1.0000    0     1.008         41.054621512881958         -8.090163243714288         24.129988593085820
  50 H     1.0000    0     1.008        -40.258423200876919         14.398069078743427        -18.239693336391937
  51 H     1.0000    0     1.008        -36.938344458929329          8.010133341942723        -13.285851865362734
  52 H     1.0000    0     1.008         52.713192409802424         -9.607783404605106         12.364648169598803
  53 H     1.0000    0     1.008         48.673146908092185         -3.570202893033403         17.222094710536684

--------------------------------
INTERNAL COORDINATES (ANGSTROEM)
--------------------------------
 C      0   0   0   0.000000     0.000     0.000
 C      1   0   0   1.395669     0.000     0.000
 C      2   1   0   1.429784   114.101     0.000
 C      3   2   1   1.398327   113.693     0.000
 S      1   2   3   1.658041   105.480     0.000
 H      2   1   3   1.138214   122.211   163.048
 C      3   2   1   1.607661   118.590   180.620
 C      7   3   2   1.686029   117.198   324.253
 C      8   7   3   1.700134   104.867    86.553
 H      9   8   7   1.154296   107.372   202.259
 H      9   8   7   1.153132   110.189   321.028
 H      8   7   3   1.147027   110.436   205.178
 H      8   7   3   1.146145   110.325   328.058
 H      7   3   2   1.171198   110.747   208.536
 H      7   3   2   1.161725   109.463    89.470
 C      9   8   7   1.626773   111.978    80.892
 C     16   9   8   1.690184   116.214   184.164
 C     17  16   9   1.681517   116.515   358.853
 H     18  17  16   1.158524   108.917   194.851
 H     18  17  16   1.157046   109.475    75.173
 H     18  17  16   1.156568   109.861   314.609
 H     17  16   9   1.154441   107.599   119.666
 H     17  16   9   1.152821   107.732   237.454
 H     16   9   8   1.158196   109.322   304.767
 H     16   9   8   1.158000   108.864    62.865
 C      4   3   2  50.463709   156.953   217.139
 C     26   4   3   1.395668    32.228   296.306
 C     27  26   4   1.429777   114.102   276.606
 C     28  27  26   1.398326   113.693     0.000
 S     26   4   3   1.658034    99.593   192.451
 H     27  26   4   1.142452   123.623    96.498
 C     28  27  26   1.612981   126.068   179.878
 C     32  28  27   1.689017   121.291    58.032
 C     33  32  28   1.692557   109.906    89.569
 H     34  33  32   1.158102   107.202   214.082
 H     34  33  32   1.158033   107.915   330.405
 H     33  32  28   1.149885   109.184   209.089
 H     33  32  28   1.148248   109.470   329.875
 H     32  28  27   1.164488   109.710   182.229
 H     32  28  27   1.172516   107.959   297.546
 C     34  33  32   1.628039   115.199    92.806
 C     41  34  33   1.688113   114.761   277.562
 C     42  41  34   1.687805   117.858   110.559
 H     43  42  41   1.158080   109.207   232.501
 H     43  42  41   1.156065   111.133   112.826
 H     43  42  41   1.157670   109.417   352.353
 H     42  41  34   1.141727   103.607   240.010
 H     42  41  34   1.150678   106.276   353.876
 H     41  34  33   1.155525   109.581    39.067
 H     41  34  33   1.158765   109.011   157.606
 H      1   2   3   1.060009   127.260   180.000
 H      4   3   2   1.059992   127.206   180.000
 H     26   4   3   1.059997   124.124    43.551
 H     29  28  27   1.060003   127.206   180.000

---------------------------
INTERNAL COORDINATES (A.U.)
---------------------------
 C      0   0   0   0.000000     0.000     0.000
 C      1   0   0   2.637432     0.000     0.000
 C      2   1   0   2.701901   114.101     0.000
 C      3   2   1   2.642455   113.693     0.000
 S      1   2   3   3.133243   105.480     0.000
 H      2   1   3   2.150913   122.211   163.048
 C      3   2   1   3.038040   118.590   180.620
 C      7   3   2   3.186132   117.198   324.253
 C      8   7   3   3.212787   104.867    86.553
 H      9   8   7   2.181303   107.372   202.259
 H      9   8   7   2.179105   110.189   321.028
 H      8   7   3   2.167567   110.436   205.178
 H      8   7   3   2.165900   110.325   328.058
 H      7   3   2   2.213244   110.747   208.536
 H      7   3   2   2.195341   109.463    89.470
 C      9   8   7   3.074155   111.978    80.892
 C     16   9   8   3.193984   116.214   184.164
 C     17  16   9   3.177606   116.515   358.853
 H     18  17  16   2.189293   108.917   194.851
 H     18  17  16   2.186500   109.475    75.173
 H     18  17  16   2.185598   109.861   314.609
 H     17  16   9   2.181578   107.599   119.666
 H     17  16   9   2.178517   107.732   237.454
 H     16   9   8   2.188673   109.322   304.767
 H     16   9   8   2.188303   108.864    62.865
 C      4   3   2  95.362590   156.953   217.139
 C     26   4   3   2.637430    32.228   296.306
 C     27  26   4   2.701887   114.102   276.606
 C     28  27  26   2.642452   113.693     0.000
 S     26   4   3   3.133231    99.593   192.451
 H     27  26   4   2.158921   123.623    96.498
 C     28  27  26   3.048093   126.068   179.878
 C     32  28  27   3.191779   121.291    58.032
 C     33  32  28   3.198468   109.906    89.569
 H     34  33  32   2.188495   107.202   214.082
 H     34  33  32   2.188365   107.915   330.405
 H     33  32  28   2.172968   109.184   209.089
 H     33  32  28   2.169874   109.470   329.875
 H     32  28  27   2.200563   109.710   182.229
 H     32  28  27   2.215734   107.959   297.546
 C     34  33  32   3.076548   115.199    92.806
 C     41  34  33   3.190072   114.761   277.562
 C     42  41  34   3.189489   117.858   110.559
 H     43  42  41   2.188455   109.207   232.501
 H     43  42  41   2.184646   111.133   112.826
 H     43  42  41   2.187679   109.417   352.353
 H     42  41  34   2.157552   103.607   240.010
 H     42  41  34   2.174466   106.276   353.876
 H     41  34  33   2.183626   109.581    39.067
 H     41  34  33   2.189749   109.011   157.606
 H      1   2   3   2.003128   127.260   180.000
 H      4   3   2   2.003095   127.206   180.000
 H     26   4   3   2.003104   124.124    43.551
 H     29  28  27   2.003115   127.206   180.000

----------------------------
SLATER BASIS SET DIM= 120
----------------------------
  0 C     2 shells
 l=0 nsto= 1
    2       1.625000000000        1.000000000000
 l=1 nsto= 1
    2       1.625000000000        1.000000000000
  1 C     2 shells
 l=0 nsto= 1
    2       1.625000000000        1.000000000000
 l=1 nsto= 1
    2       1.625000000000        1.000000000000
  2 C     2 shells
 l=0 nsto= 1
    2       1.625000000000        1.000000000000
 l=1 nsto= 1
    2       1.625000000000        1.000000000000
  3 C     2 shells
 l=0 nsto= 1
    2       1.625000000000        1.000000000000
 l=1 nsto= 1
    2       1.625000000000        1.000000000000
  4 S     2 shells
 l=0 nsto= 1
    3       1.925000000000        1.000000000000
 l=1 nsto= 1
    3       1.925000000000        1.000000000000
  5 H     1 shells
 l=0 nsto= 1
    1       1.200000000000        1.000000000000
  6 C     2 shells
 l=0 nsto= 1
    2       1.625000000000        1.000000000000
 l=1 nsto= 1
    2       1.625000000000        1.000000000000
  7 C     2 shells
 l=0 nsto= 1
    2       1.625000000000        1.000000000000
 l=1 nsto= 1
    2       1.625000000000        1.000000000000
  8 C     2 shells
 l=0 nsto= 1
    2       1.625000000000        1.000000000000
 l=1 nsto= 1
    2       1.625000000000        1.000000000000
  9 H     1 shells
 l=0 nsto= 1
    1       1.200000000000        1.000000000000
 10 H     1 shells
 l=0 nsto= 1
    1       1.200000000000        1.000000000000
 11 H     1 shells
 l=0 nsto= 1
    1       1.200000000000        1.000000000000
 12 H     1 shells
 l=0 nsto= 1
    1       1.200000000000        1.000000000000
 13 H     1 shells
 l=0 nsto= 1
    1       1.200000000000        1.000000000000
 14 H     1 shells
 l=0 nsto= 1
    1       1.200000000000        1.000000000000
 15 C     2 shells
 l=0 nsto= 1
    2       1.625000000000        1.000000000000
 l=1 nsto= 1
    2       1.625000000000        1.000000000000
 16 C     2 shells
 l=0 nsto= 1
    2       1.625000000000        1.000000000000
 l=1 nsto= 1
    2       1.625000000000        1.000000000000
 17 C     2 shells
 l=0 nsto= 1
    2       1.625000000000        1.000000000000
 l=1 nsto= 1
    2       1.625000000000        1.000000000000
 18 H     1 shells
 l=0 nsto= 1
    1       1.200000000000        1.000000000000
 19 H     1 shells
 l=0 nsto= 1
    1       1.200000000000        1.000000000000
 20 H     1 shells
 l=0 nsto= 1
    1       1.200000000000        1.000000000000
 21 H     1 shells
 l=0 nsto= 1
    1       1.200000000000        1.000000000000
 22 H     1 shells
 l=0 nsto= 1
    1       1.200000000000        1.000000000000
 23 H     1 shells
 l=0 nsto= 1
    1       1.200000000000        1.000000000000
 24 H     1 shells
 l=0 nsto= 1
    1       1.200000000000        1.000000000000
 25 C     2 shells
 l=0 nsto= 1
    2       1.625000000000        1.000000000000
 l=1 nsto= 1
    2       1.625000000000        1.000000000000
 26 C     2 shells
 l=0 nsto= 1
    2       1.625000000000        1.000000000000
 l=1 nsto= 1
    2       1.625000000000        1.000000000000
 27 C     2 shells
 l=0 nsto= 1
    2       1.625000000000        1.000000000000
 l=1 nsto= 1
    2       1.625000000000        1.000000000000
 28 C     2 shells
 l=0 nsto= 1
    2       1.625000000000        1.000000000000
 l=1 nsto= 1
    2       1.625000000000        1.000000000000
 29 S     2 shells
 l=0 nsto= 1
    3       1.925000000000        1.000000000000
 l=1 nsto= 1
    3       1.925000000000        1.000000000000
 30 H     1 shells
 l=0 nsto= 1
    1       1.200000000000        1.000000000000
 31 C     2 shells
 l=0 nsto= 1
    2       1.625000000000        1.000000000000
 l=1 nsto= 1
    2       1.625000000000        1.000000000000
 32 C     2 shells
 l=0 nsto= 1
    2       1.625000000000        1.000000000000
 l=1 nsto= 1
    2       1.625000000000        1.000000000000
 33 C     2 shells
 l=0 nsto= 1
    2       1.625000000000        1.000000000000
 l=1 nsto= 1
    2       1.625000000000        1.000000000000
 34 H     1 shells
 l=0 nsto= 1
    1       1.200000000000        1.000000000000
 35 H     1 shells
 l=0 nsto= 1
    1       1.200000000000        1.000000000000
 36 H     1 shells
 l=0 nsto= 1
    1       1.200000000000        1.000000000000
 37 H     1 shells
 l=0 nsto= 1
    1       1.200000000000        1.000000000000
 38 H     1 shells
 l=0 nsto= 1
    1       1.200000000000        1.000000000000
 39 H     1 shells
 l=0 nsto= 1
    1       1.200000000000        1.000000000000
 40 C     2 shells
 l=0 nsto= 1
    2       1.625000000000        1.000000000000
 l=1 nsto= 1
    2       1.625000000000        1.000000000000
 41 C     2 shells
 l=0 nsto= 1
    2       1.625000000000        1.000000000000
 l=1 nsto= 1
    2       1.625000000000        1.000000000000
 42 C     2 shells
 l=0 nsto= 1
    2       1.625000000000        1.000000000000
 l=1 nsto= 1
    2       1.625000000000        1.000000000000
 43 H     1 shells
 l=0 nsto= 1
    1       1.200000000000        1.000000000000
 44 H     1 shells
 l=0 nsto= 1
    1       1.200000000000        1.000000000000
 45 H     1 shells
 l=0 nsto= 1
    1       1.200000000000        1.000000000000
 46 H     1 shells
 l=0 nsto= 1
    1       1.200000000000        1.000000000000
 47 H     1 shells
 l=0 nsto= 1
    1       1.200000000000        1.000000000000
 48 H     1 shells
 l=0 nsto= 1
    1       1.200000000000        1.000000000000
 49 H     1 shells
 l=0 nsto= 1
    1       1.200000000000        1.000000000000
 50 H     1 shells
 l=0 nsto= 1
    1       1.200000000000        1.000000000000
 51 H     1 shells
 l=0 nsto= 1
    1       1.200000000000        1.000000000000
 52 H     1 shells
 l=0 nsto= 1
    1       1.200000000000        1.000000000000
 53 H     1 shells
 l=0 nsto= 1
    1       1.200000000000        1.000000000000
------------------------------------------------------------------------------
                           ORCA NDO INTEGRAL CALCULATION
------------------------------------------------------------------------------

--------------
NDO PARAMETERS
--------------

Gamma integral treatment              ... Mataga-Nishimoto
Nuclear repulsuion treatment          ... Direct (ZA*ZB/RAB)
Interaction factors:
s-s (sigma) =    1.0000
s-p (sigma) =    1.0000
s-d (sigma) =    1.0000
p-p (sigma) =    1.2670  p-p(pi) =    0.5850
p-d (sigma) =    1.0000  p-d(pi) =    1.0000
d-d (sigma) =    1.0000  d-d(pi) =    1.0000 d-d (delta) =    1.0000

fGamma parameter for Mataga-Nishimoto gamma integrals:    1.2000

--------------------------
Parameters for Element H :
--------------------------
 One-electron parameters (in eV)
  U(s)  =   -13.060000 Beta(s) =    12.000000 Neff(s) =     1.000000
 One-center electron repulsion parameters (in eV)
  G(s,s)=    12.850000
--------------------------
Parameters for Element C :
--------------------------
 One-electron parameters (in eV)
  U(s)  =   -50.870766 Beta(s) =    17.000000 Neff(s) =     2.000000
  U(p)  =   -41.599980 Beta(p) =    17.000000 Neff(p) =     2.000000 
 One-center electron repulsion parameters (in eV)
  G(s,s)=    11.110000
  G(s,p)=    11.110000 G(p,p)  =    11.110000
 Slater-Condon parameters (in eV)
 F2(p,p)=     4.5098 G1(s,p)=    6.8977
--------------------------
Parameters for Element S :
--------------------------
 One-electron parameters (in eV)
  U(s)  =   -69.509597 Beta(s) =    15.000000 Neff(s) =     2.000000
  U(p)  =   -60.725746 Beta(p) =    15.000000 Neff(p) =     4.000000 
 One-center electron repulsion parameters (in eV)
  G(s,s)=    10.090000
  G(s,p)=    10.090000 G(p,p)  =    10.090000
 Slater-Condon parameters (in eV)
 F2(p,p)=     4.5377 G1(s,p)=    3.0756

 Number of atoms                    ....   54
 Number of basis functions          ....  120

 Overlap integrals                  .... done
 One electron matrix                .... done
 Nuclear repulsion                  .... done
 Integral list                      .... done
 Electron-electron repulsion        .... done
-------------------------------------------------------------------------------
                                 ORCA SCF
-------------------------------------------------------------------------------

------------
SCF SETTINGS
------------
Hamiltonian:
 ZDO-Hamiltonian        Method          .... INDO


General Settings:
 Integral files         IntName         .... /Users/mattyjones/GoogleDrive/Boise/Code/MorphCT/tests/output_EZ/donor_polymer/chromophores/input_orca/pair/00002-00023
 Hartree-Fock type      HFTyp           .... RHF
 Total Charge           Charge          ....    0
 Multiplicity           Mult            ....    1
 Number of Electrons    NEL             ....  124
 Basis Dimension        Dim             ....  120
 Nuclear Repulsion      ENuc            ....    648.0470567212 Eh

Convergence Acceleration:
 DIIS                   CNVDIIS         .... on
   Start iteration      DIISMaxIt       ....    12
   Startup error        DIISStart       ....  0.200000
   # of expansion vecs  DIISMaxEq       ....     5
   Bias factor          DIISBfac        ....   1.050
   Max. coefficient     DIISMaxC        ....  10.000
 Newton-Raphson         CNVNR           .... off
 SOSCF                  CNVSOSCF        .... on
   Start iteration      SOSCFMaxIt      ....   150
   Startup grad/error   SOSCFStart      ....  0.003300
 Level Shifting         CNVShift        .... on
   Level shift para.    LevelShift      ....    0.2500
   Turn off err/grad.   ShiftErr        ....    0.0010
 Zerner damping         CNVZerner       .... off
 Static damping         CNVDamp         .... on
   Fraction old density DampFac         ....    0.7000
   Max. Damping (<1)    DampMax         ....    0.9800
   Min. Damping (>=0)   DampMin         ....    0.0000
   Turn off err/grad.   DampErr         ....    0.1000
 Fernandez-Rico         CNVRico         .... off

SCF Procedure:
 Maximum # iterations   MaxIter         ....   125
 SCF integral mode      SCFMode         .... Conventional
 Integral Buffer length BufferLength    .... 1048576
 Integral index format  IndFormat       ....     0
 Integral value format  ValFormat       ....     0
 Integral Storage       Thresh          ....  1.000e-08 Eh

Convergence Tolerance:
 Convergence Check Mode ConvCheckMode   .... Total+1el-Energy
 Energy Change          TolE            ....  1.000e-06 Eh
 1-El. energy change                    ....  1.000e-03 Eh
 Orbital Gradient       TolG            ....  5.000e-05
 Orbital Rotation angle TolX            ....  5.000e-05
 DIIS Error             TolErr          ....  1.000e-06


Diagonalization of the overlap matrix:
Smallest eigenvalue                        ... 1.695e-01
Time for diagonalization                   ...    0.003 sec
Threshold for overlap eigenvalues          ... 1.000e-08
Number of eigenvalues below threshold      ... 0
Time for construction of square roots      ...    0.001 sec
Total time needed                          ...    0.004 sec

-------------------------------
INITIAL GUESS: EXTENDED HUECKEL
-------------------------------
EHT matrix was read from disk
EHT matrix was diagonalized
Initial density was built
                      ------------------
                      INITIAL GUESS DONE
                      ------------------

 InCore treatment chosen:
   Memory dedicated               ...    1024 MB
   Memory needed                  ...      0 MB
   Number of tiny    integrals    ...       0
   Number of small   integrals    ...       0
   Number of regular integrals    ...    7392

--------------
SCF ITERATIONS
--------------
ITER       Energy         Delta-E        Max-DP      RMS-DP      [F,P]     Damp
  0    -14.7852794080   0.000000000000 0.04201794  0.00144457  0.1000005 0.7000
  1    -14.8268583654  -0.041578957326 0.03978535  0.00136050  0.0684326 0.7000
                               ***Turning on DIIS***
  2    -14.8576281692  -0.030769803839 0.10167253  0.00349184  0.0415011 0.0000
  3    -14.9379362623  -0.080308093127 0.01613460  0.00072241  0.0197253 0.0000
  4    -14.9231669487   0.014769313649 0.01170639  0.00049572  0.0073710 0.0000
  5    -14.9401810287  -0.017014080025 0.00819673  0.00033585  0.0042545 0.0000
  6    -14.9428900695  -0.002709040758 0.00635025  0.00023925  0.0023036 0.0000
                      *** Initiating the SOSCF procedure ***
                           *** Shutting down DIIS ***
                      *** Re-Reading the Fockian *** 
                      *** Removing any level shift *** 
ITER      Energy       Delta-E        Grad      Rot      Max-DP    RMS-DP
  7    -14.93861502   0.0042750523  0.003056  0.003056  0.003787  0.000135
  8    -14.93660366   0.0020113609  0.000824  0.002274  0.001904  0.000063
  9    -14.93661849  -0.0000148317  0.000366  0.002242  0.002157  0.000067
 10    -14.93662396  -0.0000054676  0.000026  0.000064  0.000115  0.000004
                 **** Energy Check signals convergence ****
              ***Rediagonalizing the Fockian in SOSCF/NRSCF***

               *****************************************************
               *                     SUCCESS                       *
               *           SCF CONVERGED AFTER  11 CYCLES          *
               *****************************************************


----------------
TOTAL SCF ENERGY
----------------

Total Energy       :          -14.93662400 Eh            -406.44620 eV

Components:
Nuclear Repulsion  :          648.04705672 Eh           17634.25692 eV
Electronic Energy  :         -662.98368072 Eh          -18040.70312 eV

One Electron Energy:        -1235.46923280 Eh          -33618.82697 eV
Two Electron Energy:          572.48555208 Eh           15578.12385 eV


---------------
SCF CONVERGENCE
---------------

  Last Energy change         ...   -4.6221e-08  Tolerance :   1.0000e-06
  Last MAX-Density change    ...    4.2170e-05  Tolerance :   1.0000e-05
  Last RMS-Density change    ...    1.2338e-06  Tolerance :   1.0000e-06
  Last Orbital Gradient      ...    7.0789e-06  Tolerance :   5.0000e-05
  Last Orbital Rotation      ...    1.9734e-05  Tolerance :   5.0000e-05

             **** THE GBW FILE WAS UPDATED (/Users/mattyjones/GoogleDrive/Boise/Code/MorphCT/tests/output_EZ/donor_polymer/chromophores/input_orca/pair/00002-00023.gbw) ****
             **** DENSITY FILE WAS UPDATED (/Users/mattyjones/GoogleDrive/Boise/Code/MorphCT/tests/output_EZ/donor_polymer/chromophores/input_orca/pair/00002-00023.scfp.tmp) ****
             **** ENERGY FILE WAS UPDATED (/Users/mattyjones/GoogleDrive/Boise/Code/MorphCT/tests/output_EZ/donor_polymer/chromophores/input_orca/pair/00002-00023.en.tmp) ****
----------------
ORBITAL ENERGIES
----------------

  NO   OCC          E(Eh)            E(eV) 
   0   2.0000      -1.563293       -42.5394 
   1   2.0000      -1.557237       -42.3746 
   2   2.0000      -1.420706       -38.6594 
   3   2.0000      -1.416898       -38.5558 
   4   2.0000      -1.296497       -35.2795 
   5   2.0000      -1.277380       -34.7593 
   6   2.0000      -1.182927       -32.1891 
   7   2.0000      -1.164357       -31.6838 
   8   2.0000      -1.114428       -30.3251 
   9   2.0000      -1.108438       -30.1621 
  10   2.0000      -1.038646       -28.2630 
  11   2.0000      -1.033487       -28.1226 
  12   2.0000      -0.987514       -26.8716 
  13   2.0000      -0.962769       -26.1983 
  14   2.0000      -0.910830       -24.7849 
  15   2.0000      -0.902075       -24.5467 
  16   2.0000      -0.873662       -23.7735 
  17   2.0000      -0.846609       -23.0374 
  18   2.0000      -0.829983       -22.5850 
  19   2.0000      -0.818709       -22.2782 
  20   2.0000      -0.782355       -21.2890 
  21   2.0000      -0.769578       -20.9413 
  22   2.0000      -0.742990       -20.2178 
  23   2.0000      -0.728760       -19.8306 
  24   2.0000      -0.708686       -19.2843 
  25   2.0000      -0.687748       -18.7146 
  26   2.0000      -0.684531       -18.6270 
  27   2.0000      -0.666323       -18.1316 
  28   2.0000      -0.640084       -17.4176 
  29   2.0000      -0.622891       -16.9497 
  30   2.0000      -0.616101       -16.7650 
  31   2.0000      -0.611668       -16.6443 
  32   2.0000      -0.605270       -16.4702 
  33   2.0000      -0.592594       -16.1253 
  34   2.0000      -0.580367       -15.7926 
  35   2.0000      -0.577083       -15.7032 
  36   2.0000      -0.568257       -15.4631 
  37   2.0000      -0.566767       -15.4225 
  38   2.0000      -0.552758       -15.0413 
  39   2.0000      -0.542665       -14.7667 
  40   2.0000      -0.537542       -14.6273 
  41   2.0000      -0.536121       -14.5886 
  42   2.0000      -0.528878       -14.3915 
  43   2.0000      -0.522869       -14.2280 
  44   2.0000      -0.506886       -13.7931 
  45   2.0000      -0.502436       -13.6720 
  46   2.0000      -0.497686       -13.5427 
  47   2.0000      -0.495639       -13.4870 
  48   2.0000      -0.490073       -13.3356 
  49   2.0000      -0.489167       -13.3109 
  50   2.0000      -0.479683       -13.0528 
  51   2.0000      -0.475663       -12.9434 
  52   2.0000      -0.468414       -12.7462 
  53   2.0000      -0.464316       -12.6347 
  54   2.0000      -0.457460       -12.4481 
  55   2.0000      -0.447578       -12.1792 
  56   2.0000      -0.438012       -11.9189 
  57   2.0000      -0.436779       -11.8853 
  58   2.0000      -0.356597        -9.7035 
  59   2.0000      -0.354560        -9.6481 
  60   2.0000      -0.304416        -8.2836 
  61   2.0000      -0.304382        -8.2826 
  62   0.0000       0.007645         0.2080 
  63   0.0000       0.008169         0.2223 
  64   0.0000       0.069156         1.8818 
  65   0.0000       0.071461         1.9445 
  66   0.0000       0.078788         2.1439 
  67   0.0000       0.082289         2.2392 
  68   0.0000       0.087458         2.3799 
  69   0.0000       0.088953         2.4205 
  70   0.0000       0.103962         2.8290 
  71   0.0000       0.105810         2.8792 
  72   0.0000       0.107194         2.9169 
  73   0.0000       0.108319         2.9475 
  74   0.0000       0.120566         3.2808 
  75   0.0000       0.124816         3.3964 
  76   0.0000       0.141090         3.8392 
  77   0.0000       0.144280         3.9261 
  78   0.0000       0.154758         4.2112 
  79   0.0000       0.158888         4.3236 
  80   0.0000       0.165405         4.5009 
  81   0.0000       0.165507         4.5037 
  82   0.0000       0.167940         4.5699 
  83   0.0000       0.172655         4.6982 
  84   0.0000       0.205731         5.5982 
  85   0.0000       0.205940         5.6039 
  86   0.0000       0.230482         6.2717 
  87   0.0000       0.230746         6.2789 
  88   0.0000       0.233734         6.3602 
  89   0.0000       0.236404         6.4329 
  90   0.0000       0.236563         6.4372 
  91   0.0000       0.239005         6.5037 
  92   0.0000       0.239196         6.5088 
  93   0.0000       0.239880         6.5275 
  94   0.0000       0.241141         6.5618 
  95   0.0000       0.243312         6.6209 
  96   0.0000       0.244359         6.6493 
  97   0.0000       0.244419         6.6510 
  98   0.0000       0.246351         6.7035 
  99   0.0000       0.246503         6.7077 
 100   0.0000       0.257838         7.0161 
 101   0.0000       0.259796         7.0694 
 102   0.0000       0.264365         7.1937 
 103   0.0000       0.266480         7.2513 
 104   0.0000       0.267610         7.2820 
 105   0.0000       0.270249         7.3538 
 106   0.0000       0.281111         7.6494 
 107   0.0000       0.283698         7.7198 
 108   0.0000       0.299286         8.1440 
 109   0.0000       0.307328         8.3628 
 110   0.0000       0.310402         8.4465 
 111   0.0000       0.310597         8.4518 
 112   0.0000       0.341827         9.3016 
 113   0.0000       0.342892         9.3306 
 114   0.0000       0.346950         9.4410 
 115   0.0000       0.352759         9.5990 
 116   0.0000       0.408508        11.1161 
 117   0.0000       0.417065        11.3489 
 118   0.0000       0.427576        11.6349 
 119   0.0000       0.432938        11.7808 
-------
TIMINGS
-------

Total SCF time: 0 days 0 hours 0 min 0 sec 

Total time                  ....       0.124 sec
Sum of individual times     ....       0.100 sec  ( 80.9%)

Fock matrix formation       ....       0.047 sec  ( 38.1%)
Diagonalization             ....       0.026 sec  ( 20.7%)
Density matrix formation    ....       0.005 sec  (  4.2%)
Population analysis         ....       0.000 sec  (  0.0%)
Initial guess               ....       0.003 sec  (  2.4%)
Orbital Transformation      ....       0.000 sec  (  0.0%)
Orbital Orthonormalization  ....       0.000 sec  (  0.0%)
DIIS solution               ....       0.013 sec  ( 10.7%)
SOSCF solution              ....       0.006 sec  (  4.8%)

-------------------------   --------------------
FINAL SINGLE POINT ENERGY       -14.936624001761
-------------------------   --------------------


                            ***************************************
                            *     ORCA property calculations      *
                            ***************************************

                                    ---------------------
                                    Active property flags
                                    ---------------------
   (+) Dipole Moment


------------------------------------------------------------------------------
                       ORCA ELECTRIC PROPERTIES CALCULATION
------------------------------------------------------------------------------

Dipole Moment Calculation                       ... on
Quadrupole Moment Calculation                   ... off
Polarizability Calculation                      ... off
GBWName                                         ... /Users/mattyjones/GoogleDrive/Boise/Code/MorphCT/tests/output_EZ/donor_polymer/chromophores/input_orca/pair/00002-00023.gbw
Electron density file                           ... /Users/mattyjones/GoogleDrive/Boise/Code/MorphCT/tests/output_EZ/donor_polymer/chromophores/input_orca/pair/00002-00023.scfp.tmp

-------------
DIPOLE MOMENT
-------------
                                X             Y             Z
Electronic contribution:    205.37776      80.26759      -7.31183
Nuclear contribution   :   -109.67101     -42.46520       4.09559
                        -----------------------------------------
Total Dipole Moment    :     95.70674      37.80240      -3.21624
                        -----------------------------------------
Magnitude (a.u.)       :    102.95215
Magnitude (Debye)      :    261.68358


Timings for individual modules:

Sum of individual times         ...        0.200 sec (=   0.003 min)
STO integral calculation        ...        0.039 sec (=   0.001 min)  19.5 %
SCF iterations                  ...        0.161 sec (=   0.003 min)  80.5 %
                             ****ORCA TERMINATED NORMALLY****
TOTAL RUN TIME: 0 days 0 hours 0 minutes 0 seconds 509 msec

