
                                 *****************
                                 * O   R   C   A *
                                 *****************

           --- An Ab Initio, DFT and Semiempirical electronic structure package ---

                  #######################################################
                  #                        -***-                        #
                  #  Department of molecular theory and spectroscopy    #
                  #              Directorship: Frank Neese              #
                  # Max Planck Institute for Chemical Energy Conversion #
                  #                  D-45470 Muelheim/Ruhr              #
                  #                       Germany                       #
                  #                                                     #
                  #                  All rights reserved                #
                  #                        -***-                        #
                  #######################################################


                         Program Version 3.0.3 - RELEASE   -


 With contributions from (in alphabetic order):
   Ute Becker             : Parallelization
   Dmytro Bykov           : SCF Hessian
   Dmitry Ganyushin       : Spin-Orbit,Spin-Spin,Magnetic field MRCI
   Andreas Hansen         : Spin unrestricted coupled pair/coupled cluster methods
   Dimitrios Liakos       : Extrapolation schemes; parallel MDCI
   Robert Izsak           : Overlap fitted RIJCOSX, COSX-SCS-MP3
   Christian Kollmar      : KDIIS, OOCD, Brueckner-CCSD(T), CCSD density
   Simone Kossmann        : Meta GGA functionals, TD-DFT gradient, OOMP2, MP2 Hessian
   Taras Petrenko         : DFT Hessian,TD-DFT gradient, ASA and ECA modules, normal mode analysis, Resonance Raman, ABS, FL, XAS/XES, NRVS
   Christoph Reimann      : Effective Core Potentials
   Michael Roemelt        : Restricted open shell CIS
   Christoph Riplinger    : Improved optimizer, TS searches, QM/MM, DLPNO-CCSD
   Barbara Sandhoefer     : DKH picture change effects
   Igor Schapiro          : Molecular dynamics
   Kantharuban Sivalingam : CASSCF convergence, NEVPT2
   Boris Wezisla          : Elementary symmetry handling
   Frank Wennmohs         : Technical directorship


 We gratefully acknowledge several colleagues who have allowed us to
 interface, adapt or use parts of their codes:
   Stefan Grimme, W. Hujo, H. Kruse, T. Risthaus : VdW corrections, initial TS optimization,
                                                   DFT functionals, gCP
   Ed Valeev                                     : LibInt (2-el integral package), F12 methods
   Garnet Chan, S. Sharma, R. Olivares           : DMRG
   Ulf Ekstrom                                   : XCFun DFT Library
   Mihaly Kallay                                 : mrcc  (arbitrary order and MRCC methods)
   Andreas Klamt, Michael Diedenhofen            : otool_cosmo (COSMO solvation model)
   Frank Weinhold                                : gennbo (NPA and NBO analysis)
   Christopher J. Cramer and Donald G. Truhlar   : smd solvation model


 Your calculation uses the libint2 library for the computation of 2-el integrals
 For citations please refer to: http://libint.valeyev.net

 This ORCA versions uses:
   CBLAS   interface :  Fast vector & matrix operations
   LAPACKE interface :  Fast linear algebra routines
   SCALAPACK package :  Parallel linear algebra routines


leaving
================================================================================
                                        WARNINGS
                       Please study these warnings very carefully!
================================================================================
Now building the actual basis set

WARNING: Direct SCF is incompatible with Method<>HF and Method<>DFT
  ===> : conventional SCF is chosen

WARNING: The NDO methods need Guess=HUECKEL or Guess=HCORE or Guess=MOREAD
  ===> : Guess is set to Hueckel

WARNING: The NDO methods need %rel::SOCType==1
  ===> : %rel::SOCType is set to 1

WARNING: The NDO methods cannot have frozencore=1
  ===> : %method FrozenCore=0 end


INFO   : the flag for use of LIBINT has been found!

================================================================================
                                       INPUT FILE
================================================================================
NAME = /Users/mattyjones/GoogleDrive/Boise/Code/MorphCT/tests/output_EZ/donor_polymer/chromophores/input_orca/pair/00004-00020.inp
|  1> # ================================================================
|  2> # Orca input file made by Matty Jones
|  3> # ================================================================
|  4> ! ZINDO/S 
|  5> ! NOPOP
|  6> ! NOMOPRINT
|  7> * xyz 0   1
|  8>  C  17.12180  5.88799  -2.03595
|  9>  C  16.52404  4.68036  -2.39956
| 10>  C  17.02579  3.54405  -1.69153
| 11>  C  18.02480  3.85599  -0.76417
| 12>  S  18.23180  5.49820  -0.86759
| 13>  H  15.69544  4.57387  -3.17768
| 14>  C  16.42511  2.06418  -1.97880
| 15>  C  14.73583  1.77064  -1.79519
| 16>  C  13.31195  1.88226  -2.75436
| 17>  H  12.61984  1.05850  -2.30844
| 18>  H  12.86500  2.91112  -2.44469
| 19>  H  14.71934  0.65415  -1.47590
| 20>  H  14.46865  2.41648  -0.86894
| 21>  H  16.96158  1.24824  -1.35395
| 22>  H  16.62785  1.81184  -3.10539
| 23>  C  13.15596  1.78801  -4.37519
| 24>  C  12.66081  0.28616  -4.99856
| 25>  C  10.99064  0.06725  -5.13256
| 26>  H  10.76679  -1.05897  -5.27971
| 27>  H  10.59721  0.66236  -6.04298
| 28>  H  10.47458  0.44285  -4.16779
| 29>  H  13.10922  0.18291  -6.05501
| 30>  H  13.07737  -0.54247  -4.31713
| 31>  H  12.37088  2.56538  -4.72242
| 32>  H  14.17018  2.04302  -4.86773
| 33>  C  -16.84551  -6.67179  2.96239
| 34>  C  -15.97352  -5.59243  3.11250
| 35>  C  -16.53120  -4.48621  3.82630
| 36>  C  -17.85020  -4.69310  4.24193
| 37>  S  -18.25137  -6.21247  3.71184
| 38>  H  -14.88036  -5.59153  2.78630
| 39>  C  -15.44588  -3.27808  3.95897
| 40>  C  -15.55658  -1.64603  3.49107
| 41>  C  -13.99453  -0.98626  3.76617
| 42>  H  -13.93556  -0.78881  4.90546
| 43>  H  -13.22866  -1.81449  3.50231
| 44>  H  -15.81514  -1.57260  2.37801
| 45>  H  -16.32555  -1.09603  4.13590
| 46>  H  -15.19575  -3.19521  5.10494
| 47>  H  -14.45448  -3.62272  3.43861
| 48>  C  -13.53189  0.36917  2.98426
| 49>  C  -12.74160  0.12322  1.49645
| 50>  C  -11.05986  -0.00780  1.54456
| 51>  H  -10.69904  -0.00804  2.64310
| 52>  H  -10.58998  0.88778  0.98115
| 53>  H  -10.73915  -0.99480  1.03113
| 54>  H  -13.15941  -0.84457  1.03175
| 55>  H  -13.00159  1.01723  0.81642
| 56>  H  -14.46056  1.02293  2.77142
| 57>  H  -12.80224  0.96453  3.65609
| 58>  H  16.91068  6.85125  -2.42475
| 59>  H  18.54160  3.18360  -0.12823
| 60>  H  -16.65019  -7.59130  2.47255
| 61>  H  -18.46495  -4.01978  4.78261
| 62> *
| 63> 
| 64>                          ****END OF INPUT****
================================================================================

                       ****************************
                       * Single Point Calculation *
                       ****************************

---------------------------------
CARTESIAN COORDINATES (ANGSTROEM)
---------------------------------
  C     17.121800    5.887990   -2.035950
  C     16.524040    4.680360   -2.399560
  C     17.025790    3.544050   -1.691530
  C     18.024800    3.855990   -0.764170
  S     18.231800    5.498200   -0.867590
  H     15.695440    4.573870   -3.177680
  C     16.425110    2.064180   -1.978800
  C     14.735830    1.770640   -1.795190
  C     13.311950    1.882260   -2.754360
  H     12.619840    1.058500   -2.308440
  H     12.865000    2.911120   -2.444690
  H     14.719340    0.654150   -1.475900
  H     14.468650    2.416480   -0.868940
  H     16.961580    1.248240   -1.353950
  H     16.627850    1.811840   -3.105390
  C     13.155960    1.788010   -4.375190
  C     12.660810    0.286160   -4.998560
  C     10.990640    0.067250   -5.132560
  H     10.766790   -1.058970   -5.279710
  H     10.597210    0.662360   -6.042980
  H     10.474580    0.442850   -4.167790
  H     13.109220    0.182910   -6.055010
  H     13.077370   -0.542470   -4.317130
  H     12.370880    2.565380   -4.722420
  H     14.170180    2.043020   -4.867730
  C    -16.845510   -6.671790    2.962390
  C    -15.973520   -5.592430    3.112500
  C    -16.531200   -4.486210    3.826300
  C    -17.850200   -4.693100    4.241930
  S    -18.251370   -6.212470    3.711840
  H    -14.880360   -5.591530    2.786300
  C    -15.445880   -3.278080    3.958970
  C    -15.556580   -1.646030    3.491070
  C    -13.994530   -0.986260    3.766170
  H    -13.935560   -0.788810    4.905460
  H    -13.228660   -1.814490    3.502310
  H    -15.815140   -1.572600    2.378010
  H    -16.325550   -1.096030    4.135900
  H    -15.195750   -3.195210    5.104940
  H    -14.454480   -3.622720    3.438610
  C    -13.531890    0.369170    2.984260
  C    -12.741600    0.123220    1.496450
  C    -11.059860   -0.007800    1.544560
  H    -10.699040   -0.008040    2.643100
  H    -10.589980    0.887780    0.981150
  H    -10.739150   -0.994800    1.031130
  H    -13.159410   -0.844570    1.031750
  H    -13.001590    1.017230    0.816420
  H    -14.460560    1.022930    2.771420
  H    -12.802240    0.964530    3.656090
  H     16.910680    6.851250   -2.424750
  H     18.541600    3.183600   -0.128230
  H    -16.650190   -7.591300    2.472550
  H    -18.464950   -4.019780    4.782610

----------------------------
CARTESIAN COORDINATES (A.U.)
----------------------------
  NO LB      ZA    FRAG    MASS        X           Y           Z
   0 C     4.0000    0    12.011         32.355512919772885         11.126688579266991         -3.847387922356972
   1 C     4.0000    0    12.011         31.225910225960117          8.844598608159670         -4.534511241912079
   2 C     4.0000    0    12.011         32.174080313655111          6.697283904923612         -3.196528447311815
   3 C     4.0000    0    12.011         34.061935618703778          7.286765075139007         -1.444072019758603
   4 S     6.0000    0    32.060         34.453108928425479         10.390092229525825         -1.639507496528739
   5 H     1.0000    0     1.008         29.660083151392968          8.643361672158395         -6.004944941238883
   6 C     4.0000    0    12.011         31.038959619531290          3.900734891117569         -3.739390073803373
   7 C     4.0000    0    12.011         27.846683056020797          3.346024681766325         -3.392417458354092
   8 C     4.0000    0    12.011         25.155939808453006          3.556955912834615         -5.204986074227339
   9 H     1.0000    0     1.008         23.848041453904770          2.000275112755645         -4.362319396589174
  10 H     1.0000    0     1.008         24.311326712896904          5.501219542980834         -4.619794582335945
  11 H     1.0000    0     1.008         27.815521472072437          1.236164350504587         -2.789046801054375
  12 H     1.0000    0     1.008         27.341786027559717          4.566485408098026         -1.642058626809533
  13 H     1.0000    0     1.008         32.052740998596029          2.358831749405863         -2.558594699022679
  14 H     1.0000    0     1.008         31.422082695922484          3.423881398483880         -5.868336639017715
  15 C     4.0000    0    12.011         24.861161428822630          3.378849224712537         -8.267910883870920
  16 C     4.0000    0    12.011         23.925463533611520          0.540764030482905         -9.445909463973413
  17 C     4.0000    0    12.011         20.769299636520266          0.127084082506204         -9.699132765918860
  18 H     1.0000    0     1.008         20.346284441441995         -2.001163284038588         -9.977205966525371
  19 H     1.0000    0     1.008         20.025824683651628          1.251679002064080        -11.419577232763446
  20 H     1.0000    0     1.008         19.794087567848862          0.836865218407026         -7.875981683695653
  21 H     1.0000    0     1.008         24.772835629323151          0.345649807155536        -11.442310638154519
  22 H     1.0000    0     1.008         24.712647851957758         -1.025119735868261         -8.158193384535453
  23 H     1.0000    0     1.008         23.377575235603732          4.847865629438901         -8.924080489352397
  24 H     1.0000    0     1.008         26.777759468368242          3.860748286123795         -9.198676593872493
  25 C     4.0000    0    12.011        -31.833400486231785        -12.607855923034467          5.598105801866977
  26 C     4.0000    0    12.011        -30.185578194713791        -10.568161123125225          5.881772591829895
  27 C     4.0000    0    12.011        -31.239440665078991         -8.477708279258858          7.230659106222885
  28 C     4.0000    0    12.011        -33.731989435721125         -8.868673719105827          8.016085979264576
  29 S     6.0000    0    32.060        -34.490090868866318        -11.739866915201757          7.014361052934259
  30 H     1.0000    0     1.008        -28.119805174156436        -10.566460369604696          5.265343926944784
  31 C     4.0000    0    12.011        -29.188483097411584         -6.194673445084577          7.481369072410217
  32 C     4.0000    0    12.011        -29.397675780436664         -3.110545908218398          6.597166214348464
  33 C     4.0000    0    12.011        -26.445829072944974         -1.863761296841174          7.117029873790200
  34 H     1.0000    0     1.008        -26.334391922827638         -1.490634871698423          9.269975960905343
  35 H     1.0000    0     1.008        -24.998544518758706         -3.428889172738772          6.618406736093739
  36 H     1.0000    0     1.008        -29.886283369623342         -2.971783318204560          4.493787643726076
  37 H     1.0000    0     1.008        -30.850818485638090         -2.071196534561710          7.815718317284905
  38 H     1.0000    0     1.008        -28.715805899533862         -6.038071840366523          9.646938530099954
  39 H     1.0000    0     1.008        -27.315008608242053         -6.845948659879197          6.498031181362956
  40 C     4.0000    0    12.011        -25.571566174347648          0.697630196859709          5.639434112415834
  41 C     4.0000    0    12.011        -24.078134507971019          0.232852054221777          2.827880673106457
  42 C     4.0000    0    12.011        -20.900106479510296         -0.014739863844586          2.918795397409408
  43 H     1.0000    0     1.008        -20.218255495868828         -0.015193398116727          4.994735144567260
  44 H     1.0000    0     1.008        -20.012161963703377          1.677661067172609          1.854104796296836
  45 H     1.0000    0     1.008        -20.294052411100409         -1.879899558024861          1.948553308470220
  46 H     1.0000    0     1.008        -24.867680983984656         -1.596006000925872          1.949724938673251
  47 H     1.0000    0     1.008        -24.569444405529207          1.922286115208715          1.542810210255988
  48 H     1.0000    0     1.008        -27.326498143136295          1.933057554172066          5.237224802072035
  49 H     1.0000    0     1.008        -24.192727500732005          1.822697547951065          6.909008820968149
  50 H     1.0000    0     1.008         31.956553938379432         12.946986175027975         -4.582113443225555
  51 H     1.0000    0     1.008         35.038546084714277          6.016132119951697         -0.242319582152722
  52 H     1.0000    0     1.008        -31.464299177754281        -14.345478000436399          4.672442352426991
  53 H     1.0000    0     1.008        -34.893698576549220         -7.596283318613969          9.037823105353118

--------------------------------
INTERNAL COORDINATES (ANGSTROEM)
--------------------------------
 C      0   0   0   0.000000     0.000     0.000
 C      1   0   0   1.395672     0.000     0.000
 C      2   1   0   1.429776   114.101     0.000
 C      3   2   1   1.398329   113.693     0.000
 S      1   2   3   1.658041   105.480     0.000
 H      2   1   3   1.141661   124.689   179.156
 C      3   2   1   1.622762   120.478   179.184
 C      7   3   2   1.724397   119.935   303.192
 C      8   7   3   1.720436   137.763    87.681
 H      9   8   7   1.164664   103.443   150.890
 H      9   8   7   1.163706   103.113   262.441
 H      8   7   3   1.161365   101.937   210.561
 H      8   7   3   1.160359   102.463   322.504
 H      7   3   2   1.159308   112.033   177.968
 H      7   3   2   1.172171   107.604    61.056
 C      9   8   7   1.631044   129.008    26.296
 C     16   9   8   1.699799   116.318    99.017
 C     17  16   9   1.689777   115.561    89.258
 H     18  17  16   1.157641   109.101   195.535
 H     18  17  16   1.156636   109.388    75.707
 H     18  17  16   1.156795   109.435   315.458
 H     17  16   9   1.152310   107.580   209.307
 H     17  16   9   1.150868   108.275   327.825
 H     16   9   8   1.158112   108.904   219.431
 H     16   9   8   1.155971   109.072   337.797
 C     21  18  17  29.117776   122.920   196.557
 C     26  21  18   1.395678    41.511   212.534
 C     27  26  21   1.429769   114.101   180.519
 C     28  27  26   1.398325   113.693     0.000
 S     26  21  18   1.658039   146.988   211.615
 H     27  26  21   1.140792   124.649   355.517
 C     28  27  26   1.629447   110.763   179.779
 C     32  28  27   1.701403   130.202   124.200
 C     33  32  28   1.717841   105.379   186.085
 H     34  33  32   1.157776   105.629   281.290
 H     34  33  32   1.158509   106.863    36.361
 H     33  32  28   1.145054   110.092   304.255
 H     33  32  28   1.144387   110.474    67.734
 H     32  28  27   1.175874   105.860   246.322
 H     32  28  27   1.171506   108.022   359.372
 C     34  33  32   1.631750   120.007   158.621
 C     41  34  33   1.702536   115.490   269.162
 C     42  41  34   1.687522   116.673   269.204
 H     43  42  41   1.156279   109.760     5.477
 H     43  42  41   1.157705   109.302   245.215
 H     43  42  41   1.157858   109.243   125.614
 H     42  41  34   1.152011   107.789    30.726
 H     42  41  34   1.152948   107.382   148.467
 H     41  34  33   1.155479   109.292    29.944
 H     41  34  33   1.156805   109.150   148.858
 H      1   2   3   1.060003   127.260   180.001
 H      4   3   2   1.060005   127.206   180.001
 H     26  21  18   1.059996    85.751    32.119
 H     29  28  27   1.060006   127.206   180.000

---------------------------
INTERNAL COORDINATES (A.U.)
---------------------------
 C      0   0   0   0.000000     0.000     0.000
 C      1   0   0   2.637437     0.000     0.000
 C      2   1   0   2.701885   114.101     0.000
 C      3   2   1   2.642459   113.693     0.000
 S      1   2   3   3.133244   105.480     0.000
 H      2   1   3   2.157426   124.689   179.156
 C      3   2   1   3.066575   120.478   179.184
 C      7   3   2   3.258638   119.935   303.192
 C      8   7   3   3.251153   137.763    87.681
 H      9   8   7   2.200895   103.443   150.890
 H      9   8   7   2.199086   103.113   262.441
 H      8   7   3   2.194661   101.937   210.561
 H      8   7   3   2.192761   102.463   322.504
 H      7   3   2   2.190775   112.033   177.968
 H      7   3   2   2.215081   107.604    61.056
 C      9   8   7   3.082227   129.008    26.296
 C     16   9   8   3.212155   116.318    99.017
 C     17  16   9   3.193215   115.561    89.258
 H     18  17  16   2.187625   109.101   195.535
 H     18  17  16   2.185726   109.388    75.707
 H     18  17  16   2.186026   109.435   315.458
 H     17  16   9   2.177551   107.580   209.307
 H     17  16   9   2.174825   108.275   327.825
 H     16   9   8   2.188515   108.904   219.431
 H     16   9   8   2.184468   109.072   337.797
 C     21  18  17  55.024623   122.920   196.557
 C     26  21  18   2.637450    41.511   212.534
 C     27  26  21   2.701872   114.101   180.519
 C     28  27  26   2.642451   113.693     0.000
 S     26  21  18   3.133239   146.988   211.615
 H     27  26  21   2.155784   124.649   355.517
 C     28  27  26   3.079209   110.763   179.779
 C     32  28  27   3.215186   130.202   124.200
 C     33  32  28   3.246248   105.379   186.085
 H     34  33  32   2.187880   105.629   281.290
 H     34  33  32   2.189265   106.863    36.361
 H     33  32  28   2.163838   110.092   304.255
 H     33  32  28   2.162577   110.474    67.734
 H     32  28  27   2.222080   105.860   246.322
 H     32  28  27   2.213825   108.022   359.372
 C     34  33  32   3.083561   120.007   158.621
 C     41  34  33   3.217326   115.490   269.162
 C     42  41  34   3.188954   116.673   269.204
 H     43  42  41   2.185051   109.760     5.477
 H     43  42  41   2.187746   109.302   245.215
 H     43  42  41   2.188034   109.243   125.614
 H     42  41  34   2.176985   107.789    30.726
 H     42  41  34   2.178756   107.382   148.467
 H     41  34  33   2.183538   109.292    29.944
 H     41  34  33   2.186045   109.150   148.858
 H      1   2   3   2.003116   127.260   180.001
 H      4   3   2   2.003119   127.206   180.001
 H     26  21  18   2.003102    85.751    32.119
 H     29  28  27   2.003121   127.206   180.000

----------------------------
SLATER BASIS SET DIM= 120
----------------------------
  0 C     2 shells
 l=0 nsto= 1
    2       1.625000000000        1.000000000000
 l=1 nsto= 1
    2       1.625000000000        1.000000000000
  1 C     2 shells
 l=0 nsto= 1
    2       1.625000000000        1.000000000000
 l=1 nsto= 1
    2       1.625000000000        1.000000000000
  2 C     2 shells
 l=0 nsto= 1
    2       1.625000000000        1.000000000000
 l=1 nsto= 1
    2       1.625000000000        1.000000000000
  3 C     2 shells
 l=0 nsto= 1
    2       1.625000000000        1.000000000000
 l=1 nsto= 1
    2       1.625000000000        1.000000000000
  4 S     2 shells
 l=0 nsto= 1
    3       1.925000000000        1.000000000000
 l=1 nsto= 1
    3       1.925000000000        1.000000000000
  5 H     1 shells
 l=0 nsto= 1
    1       1.200000000000        1.000000000000
  6 C     2 shells
 l=0 nsto= 1
    2       1.625000000000        1.000000000000
 l=1 nsto= 1
    2       1.625000000000        1.000000000000
  7 C     2 shells
 l=0 nsto= 1
    2       1.625000000000        1.000000000000
 l=1 nsto= 1
    2       1.625000000000        1.000000000000
  8 C     2 shells
 l=0 nsto= 1
    2       1.625000000000        1.000000000000
 l=1 nsto= 1
    2       1.625000000000        1.000000000000
  9 H     1 shells
 l=0 nsto= 1
    1       1.200000000000        1.000000000000
 10 H     1 shells
 l=0 nsto= 1
    1       1.200000000000        1.000000000000
 11 H     1 shells
 l=0 nsto= 1
    1       1.200000000000        1.000000000000
 12 H     1 shells
 l=0 nsto= 1
    1       1.200000000000        1.000000000000
 13 H     1 shells
 l=0 nsto= 1
    1       1.200000000000        1.000000000000
 14 H     1 shells
 l=0 nsto= 1
    1       1.200000000000        1.000000000000
 15 C     2 shells
 l=0 nsto= 1
    2       1.625000000000        1.000000000000
 l=1 nsto= 1
    2       1.625000000000        1.000000000000
 16 C     2 shells
 l=0 nsto= 1
    2       1.625000000000        1.000000000000
 l=1 nsto= 1
    2       1.625000000000        1.000000000000
 17 C     2 shells
 l=0 nsto= 1
    2       1.625000000000        1.000000000000
 l=1 nsto= 1
    2       1.625000000000        1.000000000000
 18 H     1 shells
 l=0 nsto= 1
    1       1.200000000000        1.000000000000
 19 H     1 shells
 l=0 nsto= 1
    1       1.200000000000        1.000000000000
 20 H     1 shells
 l=0 nsto= 1
    1       1.200000000000        1.000000000000
 21 H     1 shells
 l=0 nsto= 1
    1       1.200000000000        1.000000000000
 22 H     1 shells
 l=0 nsto= 1
    1       1.200000000000        1.000000000000
 23 H     1 shells
 l=0 nsto= 1
    1       1.200000000000        1.000000000000
 24 H     1 shells
 l=0 nsto= 1
    1       1.200000000000        1.000000000000
 25 C     2 shells
 l=0 nsto= 1
    2       1.625000000000        1.000000000000
 l=1 nsto= 1
    2       1.625000000000        1.000000000000
 26 C     2 shells
 l=0 nsto= 1
    2       1.625000000000        1.000000000000
 l=1 nsto= 1
    2       1.625000000000        1.000000000000
 27 C     2 shells
 l=0 nsto= 1
    2       1.625000000000        1.000000000000
 l=1 nsto= 1
    2       1.625000000000        1.000000000000
 28 C     2 shells
 l=0 nsto= 1
    2       1.625000000000        1.000000000000
 l=1 nsto= 1
    2       1.625000000000        1.000000000000
 29 S     2 shells
 l=0 nsto= 1
    3       1.925000000000        1.000000000000
 l=1 nsto= 1
    3       1.925000000000        1.000000000000
 30 H     1 shells
 l=0 nsto= 1
    1       1.200000000000        1.000000000000
 31 C     2 shells
 l=0 nsto= 1
    2       1.625000000000        1.000000000000
 l=1 nsto= 1
    2       1.625000000000        1.000000000000
 32 C     2 shells
 l=0 nsto= 1
    2       1.625000000000        1.000000000000
 l=1 nsto= 1
    2       1.625000000000        1.000000000000
 33 C     2 shells
 l=0 nsto= 1
    2       1.625000000000        1.000000000000
 l=1 nsto= 1
    2       1.625000000000        1.000000000000
 34 H     1 shells
 l=0 nsto= 1
    1       1.200000000000        1.000000000000
 35 H     1 shells
 l=0 nsto= 1
    1       1.200000000000        1.000000000000
 36 H     1 shells
 l=0 nsto= 1
    1       1.200000000000        1.000000000000
 37 H     1 shells
 l=0 nsto= 1
    1       1.200000000000        1.000000000000
 38 H     1 shells
 l=0 nsto= 1
    1       1.200000000000        1.000000000000
 39 H     1 shells
 l=0 nsto= 1
    1       1.200000000000        1.000000000000
 40 C     2 shells
 l=0 nsto= 1
    2       1.625000000000        1.000000000000
 l=1 nsto= 1
    2       1.625000000000        1.000000000000
 41 C     2 shells
 l=0 nsto= 1
    2       1.625000000000        1.000000000000
 l=1 nsto= 1
    2       1.625000000000        1.000000000000
 42 C     2 shells
 l=0 nsto= 1
    2       1.625000000000        1.000000000000
 l=1 nsto= 1
    2       1.625000000000        1.000000000000
 43 H     1 shells
 l=0 nsto= 1
    1       1.200000000000        1.000000000000
 44 H     1 shells
 l=0 nsto= 1
    1       1.200000000000        1.000000000000
 45 H     1 shells
 l=0 nsto= 1
    1       1.200000000000        1.000000000000
 46 H     1 shells
 l=0 nsto= 1
    1       1.200000000000        1.000000000000
 47 H     1 shells
 l=0 nsto= 1
    1       1.200000000000        1.000000000000
 48 H     1 shells
 l=0 nsto= 1
    1       1.200000000000        1.000000000000
 49 H     1 shells
 l=0 nsto= 1
    1       1.200000000000        1.000000000000
 50 H     1 shells
 l=0 nsto= 1
    1       1.200000000000        1.000000000000
 51 H     1 shells
 l=0 nsto= 1
    1       1.200000000000        1.000000000000
 52 H     1 shells
 l=0 nsto= 1
    1       1.200000000000        1.000000000000
 53 H     1 shells
 l=0 nsto= 1
    1       1.200000000000        1.000000000000
------------------------------------------------------------------------------
                           ORCA NDO INTEGRAL CALCULATION
------------------------------------------------------------------------------

--------------
NDO PARAMETERS
--------------

Gamma integral treatment              ... Mataga-Nishimoto
Nuclear repulsuion treatment          ... Direct (ZA*ZB/RAB)
Interaction factors:
s-s (sigma) =    1.0000
s-p (sigma) =    1.0000
s-d (sigma) =    1.0000
p-p (sigma) =    1.2670  p-p(pi) =    0.5850
p-d (sigma) =    1.0000  p-d(pi) =    1.0000
d-d (sigma) =    1.0000  d-d(pi) =    1.0000 d-d (delta) =    1.0000

fGamma parameter for Mataga-Nishimoto gamma integrals:    1.2000

--------------------------
Parameters for Element H :
--------------------------
 One-electron parameters (in eV)
  U(s)  =   -13.060000 Beta(s) =    12.000000 Neff(s) =     1.000000
 One-center electron repulsion parameters (in eV)
  G(s,s)=    12.850000
--------------------------
Parameters for Element C :
--------------------------
 One-electron parameters (in eV)
  U(s)  =   -50.870766 Beta(s) =    17.000000 Neff(s) =     2.000000
  U(p)  =   -41.599980 Beta(p) =    17.000000 Neff(p) =     2.000000 
 One-center electron repulsion parameters (in eV)
  G(s,s)=    11.110000
  G(s,p)=    11.110000 G(p,p)  =    11.110000
 Slater-Condon parameters (in eV)
 F2(p,p)=     4.5098 G1(s,p)=    6.8977
--------------------------
Parameters for Element S :
--------------------------
 One-electron parameters (in eV)
  U(s)  =   -69.509597 Beta(s) =    15.000000 Neff(s) =     2.000000
  U(p)  =   -60.725746 Beta(p) =    15.000000 Neff(p) =     4.000000 
 One-center electron repulsion parameters (in eV)
  G(s,s)=    10.090000
  G(s,p)=    10.090000 G(p,p)  =    10.090000
 Slater-Condon parameters (in eV)
 F2(p,p)=     4.5377 G1(s,p)=    3.0756

 Number of atoms                    ....   54
 Number of basis functions          ....  120

 Overlap integrals                  .... done
 One electron matrix                .... done
 Nuclear repulsion                  .... done
 Integral list                      .... done
 Electron-electron repulsion        .... done
-------------------------------------------------------------------------------
                                 ORCA SCF
-------------------------------------------------------------------------------

------------
SCF SETTINGS
------------
Hamiltonian:
 ZDO-Hamiltonian        Method          .... INDO


General Settings:
 Integral files         IntName         .... /Users/mattyjones/GoogleDrive/Boise/Code/MorphCT/tests/output_EZ/donor_polymer/chromophores/input_orca/pair/00004-00020
 Hartree-Fock type      HFTyp           .... RHF
 Total Charge           Charge          ....    0
 Multiplicity           Mult            ....    1
 Number of Electrons    NEL             ....  124
 Basis Dimension        Dim             ....  120
 Nuclear Repulsion      ENuc            ....    646.6998471199 Eh

Convergence Acceleration:
 DIIS                   CNVDIIS         .... on
   Start iteration      DIISMaxIt       ....    12
   Startup error        DIISStart       ....  0.200000
   # of expansion vecs  DIISMaxEq       ....     5
   Bias factor          DIISBfac        ....   1.050
   Max. coefficient     DIISMaxC        ....  10.000
 Newton-Raphson         CNVNR           .... off
 SOSCF                  CNVSOSCF        .... on
   Start iteration      SOSCFMaxIt      ....   150
   Startup grad/error   SOSCFStart      ....  0.003300
 Level Shifting         CNVShift        .... on
   Level shift para.    LevelShift      ....    0.2500
   Turn off err/grad.   ShiftErr        ....    0.0010
 Zerner damping         CNVZerner       .... off
 Static damping         CNVDamp         .... on
   Fraction old density DampFac         ....    0.7000
   Max. Damping (<1)    DampMax         ....    0.9800
   Min. Damping (>=0)   DampMin         ....    0.0000
   Turn off err/grad.   DampErr         ....    0.1000
 Fernandez-Rico         CNVRico         .... off

SCF Procedure:
 Maximum # iterations   MaxIter         ....   125
 SCF integral mode      SCFMode         .... Conventional
 Integral Buffer length BufferLength    .... 1048576
 Integral index format  IndFormat       ....     0
 Integral value format  ValFormat       ....     0
 Integral Storage       Thresh          ....  1.000e-08 Eh

Convergence Tolerance:
 Convergence Check Mode ConvCheckMode   .... Total+1el-Energy
 Energy Change          TolE            ....  1.000e-06 Eh
 1-El. energy change                    ....  1.000e-03 Eh
 Orbital Gradient       TolG            ....  5.000e-05
 Orbital Rotation angle TolX            ....  5.000e-05
 DIIS Error             TolErr          ....  1.000e-06


Diagonalization of the overlap matrix:
Smallest eigenvalue                        ... 1.697e-01
Time for diagonalization                   ...    0.003 sec
Threshold for overlap eigenvalues          ... 1.000e-08
Number of eigenvalues below threshold      ... 0
Time for construction of square roots      ...    0.001 sec
Total time needed                          ...    0.004 sec

-------------------------------
INITIAL GUESS: EXTENDED HUECKEL
-------------------------------
EHT matrix was read from disk
EHT matrix was diagonalized
Initial density was built
                      ------------------
                      INITIAL GUESS DONE
                      ------------------

 InCore treatment chosen:
   Memory dedicated               ...    1024 MB
   Memory needed                  ...      0 MB
   Number of tiny    integrals    ...       0
   Number of small   integrals    ...       0
   Number of regular integrals    ...    7392

--------------
SCF ITERATIONS
--------------
ITER       Energy         Delta-E        Max-DP      RMS-DP      [F,P]     Damp
  0    -25.2139767080   0.000000000000 0.04296450  0.00145073  0.1149924 0.7000
  1    -25.2558665291  -0.041889821099 0.04117139  0.00136659  0.0784711 0.7000
                               ***Turning on DIIS***
  2    -25.2868783133  -0.031011784171 0.10631607  0.00350838  0.0485611 0.0000
  3    -25.3670969458  -0.080218632475 0.02111896  0.00072895  0.0219625 0.0000
  4    -25.3535668892   0.013530056546 0.01281733  0.00049937  0.0076662 0.0000
  5    -25.3704978897  -0.016931000507 0.00897289  0.00033633  0.0044805 0.0000
  6    -25.3728913957  -0.002393506000 0.00673927  0.00023722  0.0024476 0.0000
                      *** Initiating the SOSCF procedure ***
                           *** Shutting down DIIS ***
                      *** Re-Reading the Fockian *** 
                      *** Removing any level shift *** 
ITER      Energy       Delta-E        Grad      Rot      Max-DP    RMS-DP
  7    -25.36873048   0.0041609115  0.003012  0.003012  0.004027  0.000133
  8    -25.36647983   0.0022506557  0.000810  0.002225  0.002002  0.000062
  9    -25.36649414  -0.0000143138  0.000351  0.002138  0.002244  0.000065
 10    -25.36649934  -0.0000051989  0.000034  0.000097  0.000153  0.000004
                 **** Energy Check signals convergence ****
              ***Rediagonalizing the Fockian in SOSCF/NRSCF***

               *****************************************************
               *                     SUCCESS                       *
               *           SCF CONVERGED AFTER  11 CYCLES          *
               *****************************************************


----------------
TOTAL SCF ENERGY
----------------

Total Energy       :          -25.36649939 Eh            -690.25754 eV

Components:
Nuclear Repulsion  :          646.69984712 Eh           17597.59748 eV
Electronic Energy  :         -672.06634651 Eh          -18287.85503 eV

One Electron Energy:        -1253.82549753 Eh          -34118.32633 eV
Two Electron Energy:          581.75915101 Eh           15830.47130 eV


---------------
SCF CONVERGENCE
---------------

  Last Energy change         ...   -5.2497e-08  Tolerance :   1.0000e-06
  Last MAX-Density change    ...    7.0710e-05  Tolerance :   1.0000e-05
  Last RMS-Density change    ...    1.5438e-06  Tolerance :   1.0000e-06
  Last Orbital Gradient      ...    1.4059e-05  Tolerance :   5.0000e-05
  Last Orbital Rotation      ...    2.8602e-05  Tolerance :   5.0000e-05

             **** THE GBW FILE WAS UPDATED (/Users/mattyjones/GoogleDrive/Boise/Code/MorphCT/tests/output_EZ/donor_polymer/chromophores/input_orca/pair/00004-00020.gbw) ****
             **** DENSITY FILE WAS UPDATED (/Users/mattyjones/GoogleDrive/Boise/Code/MorphCT/tests/output_EZ/donor_polymer/chromophores/input_orca/pair/00004-00020.scfp.tmp) ****
             **** ENERGY FILE WAS UPDATED (/Users/mattyjones/GoogleDrive/Boise/Code/MorphCT/tests/output_EZ/donor_polymer/chromophores/input_orca/pair/00004-00020.en.tmp) ****
----------------
ORBITAL ENERGIES
----------------

  NO   OCC          E(Eh)            E(eV) 
   0   2.0000      -1.557388       -42.3787 
   1   2.0000      -1.555567       -42.3291 
   2   2.0000      -1.399434       -38.0805 
   3   2.0000      -1.382940       -37.6317 
   4   2.0000      -1.292051       -35.1585 
   5   2.0000      -1.283333       -34.9213 
   6   2.0000      -1.182345       -32.1732 
   7   2.0000      -1.169545       -31.8249 
   8   2.0000      -1.115060       -30.3423 
   9   2.0000      -1.112434       -30.2709 
  10   2.0000      -1.062530       -28.9129 
  11   2.0000      -1.054312       -28.6893 
  12   2.0000      -0.973749       -26.4971 
  13   2.0000      -0.949872       -25.8473 
  14   2.0000      -0.908225       -24.7141 
  15   2.0000      -0.887631       -24.1537 
  16   2.0000      -0.854798       -23.2602 
  17   2.0000      -0.844483       -22.9795 
  18   2.0000      -0.834214       -22.7001 
  19   2.0000      -0.820995       -22.3404 
  20   2.0000      -0.785237       -21.3674 
  21   2.0000      -0.768808       -20.9203 
  22   2.0000      -0.733777       -19.9671 
  23   2.0000      -0.728610       -19.8265 
  24   2.0000      -0.703405       -19.1406 
  25   2.0000      -0.682834       -18.5809 
  26   2.0000      -0.676644       -18.4124 
  27   2.0000      -0.664798       -18.0901 
  28   2.0000      -0.656034       -17.8516 
  29   2.0000      -0.650428       -17.6990 
  30   2.0000      -0.608675       -16.5629 
  31   2.0000      -0.603989       -16.4354 
  32   2.0000      -0.591242       -16.0885 
  33   2.0000      -0.585060       -15.9203 
  34   2.0000      -0.582745       -15.8573 
  35   2.0000      -0.576300       -15.6819 
  36   2.0000      -0.574767       -15.6402 
  37   2.0000      -0.560550       -15.2533 
  38   2.0000      -0.548980       -14.9385 
  39   2.0000      -0.541086       -14.7237 
  40   2.0000      -0.533304       -14.5119 
  41   2.0000      -0.531430       -14.4610 
  42   2.0000      -0.523939       -14.2571 
  43   2.0000      -0.514652       -14.0044 
  44   2.0000      -0.514340       -13.9959 
  45   2.0000      -0.506921       -13.7940 
  46   2.0000      -0.496833       -13.5195 
  47   2.0000      -0.494502       -13.4561 
  48   2.0000      -0.490924       -13.3587 
  49   2.0000      -0.485720       -13.2171 
  50   2.0000      -0.475618       -12.9422 
  51   2.0000      -0.475098       -12.9281 
  52   2.0000      -0.472509       -12.8576 
  53   2.0000      -0.461865       -12.5680 
  54   2.0000      -0.461776       -12.5656 
  55   2.0000      -0.452341       -12.3088 
  56   2.0000      -0.437226       -11.8975 
  57   2.0000      -0.435811       -11.8590 
  58   2.0000      -0.356515        -9.7013 
  59   2.0000      -0.356491        -9.7006 
  60   2.0000      -0.305637        -8.3168 
  61   2.0000      -0.305293        -8.3075 
  62   0.0000       0.007334         0.1996 
  63   0.0000       0.007401         0.2014 
  64   0.0000       0.054962         1.4956 
  65   0.0000       0.065467         1.7814 
  66   0.0000       0.074953         2.0396 
  67   0.0000       0.075128         2.0443 
  68   0.0000       0.083623         2.2755 
  69   0.0000       0.087396         2.3782 
  70   0.0000       0.099754         2.7145 
  71   0.0000       0.103331         2.8118 
  72   0.0000       0.106491         2.8978 
  73   0.0000       0.107567         2.9271 
  74   0.0000       0.122287         3.3276 
  75   0.0000       0.125466         3.4141 
  76   0.0000       0.140927         3.8348 
  77   0.0000       0.142854         3.8873 
  78   0.0000       0.156548         4.2599 
  79   0.0000       0.159607         4.3431 
  80   0.0000       0.166023         4.5177 
  81   0.0000       0.167054         4.5458 
  82   0.0000       0.168469         4.5843 
  83   0.0000       0.172543         4.6951 
  84   0.0000       0.202681         5.5152 
  85   0.0000       0.203575         5.5396 
  86   0.0000       0.225703         6.1417 
  87   0.0000       0.231746         6.3061 
  88   0.0000       0.231969         6.3122 
  89   0.0000       0.233301         6.3484 
  90   0.0000       0.235428         6.4063 
  91   0.0000       0.236544         6.4367 
  92   0.0000       0.236716         6.4414 
  93   0.0000       0.238507         6.4901 
  94   0.0000       0.239011         6.5038 
  95   0.0000       0.240296         6.5388 
  96   0.0000       0.241115         6.5611 
  97   0.0000       0.241748         6.5783 
  98   0.0000       0.244411         6.6508 
  99   0.0000       0.244669         6.6578 
 100   0.0000       0.245645         6.6843 
 101   0.0000       0.252097         6.8599 
 102   0.0000       0.253925         6.9097 
 103   0.0000       0.263940         7.1822 
 104   0.0000       0.265555         7.2261 
 105   0.0000       0.266376         7.2485 
 106   0.0000       0.270052         7.3485 
 107   0.0000       0.274070         7.4578 
 108   0.0000       0.299592         8.1523 
 109   0.0000       0.305996         8.3266 
 110   0.0000       0.309673         8.4266 
 111   0.0000       0.309980         8.4350 
 112   0.0000       0.336353         9.1526 
 113   0.0000       0.341234         9.2854 
 114   0.0000       0.350179         9.5289 
 115   0.0000       0.364978         9.9316 
 116   0.0000       0.414141        11.2693 
 117   0.0000       0.421198        11.4614 
 118   0.0000       0.427813        11.6414 
 119   0.0000       0.430279        11.7085 
-------
TIMINGS
-------

Total SCF time: 0 days 0 hours 0 min 0 sec 

Total time                  ....       0.123 sec
Sum of individual times     ....       0.098 sec  ( 79.6%)

Fock matrix formation       ....       0.046 sec  ( 37.9%)
Diagonalization             ....       0.025 sec  ( 20.7%)
Density matrix formation    ....       0.005 sec  (  4.5%)
Population analysis         ....       0.000 sec  (  0.0%)
Initial guess               ....       0.003 sec  (  2.5%)
Orbital Transformation      ....       0.000 sec  (  0.0%)
Orbital Orthonormalization  ....       0.000 sec  (  0.0%)
DIIS solution               ....       0.011 sec  (  9.2%)
SOSCF solution              ....       0.006 sec  (  5.0%)

-------------------------   --------------------
FINAL SINGLE POINT ENERGY       -25.366499393853
-------------------------   --------------------


                            ***************************************
                            *     ORCA property calculations      *
                            ***************************************

                                    ---------------------
                                    Active property flags
                                    ---------------------
   (+) Dipole Moment


------------------------------------------------------------------------------
                       ORCA ELECTRIC PROPERTIES CALCULATION
------------------------------------------------------------------------------

Dipole Moment Calculation                       ... on
Quadrupole Moment Calculation                   ... off
Polarizability Calculation                      ... off
GBWName                                         ... /Users/mattyjones/GoogleDrive/Boise/Code/MorphCT/tests/output_EZ/donor_polymer/chromophores/input_orca/pair/00004-00020.gbw
Electron density file                           ... /Users/mattyjones/GoogleDrive/Boise/Code/MorphCT/tests/output_EZ/donor_polymer/chromophores/input_orca/pair/00004-00020.scfp.tmp

-------------
DIPOLE MOMENT
-------------
                                X             Y             Z
Electronic contribution:      2.98334     -19.46145      76.63463
Nuclear contribution   :     -0.64965      10.76690     -41.49606
                        -----------------------------------------
Total Dipole Moment    :      2.33369      -8.69455      35.13858
                        -----------------------------------------
Magnitude (a.u.)       :     36.27342
Magnitude (Debye)      :     92.19970


Timings for individual modules:

Sum of individual times         ...        0.215 sec (=   0.004 min)
STO integral calculation        ...        0.049 sec (=   0.001 min)  23.0 %
SCF iterations                  ...        0.165 sec (=   0.003 min)  77.0 %
                             ****ORCA TERMINATED NORMALLY****
TOTAL RUN TIME: 0 days 0 hours 0 minutes 0 seconds 505 msec

