
                                 *****************
                                 * O   R   C   A *
                                 *****************

           --- An Ab Initio, DFT and Semiempirical electronic structure package ---

                  #######################################################
                  #                        -***-                        #
                  #  Department of molecular theory and spectroscopy    #
                  #              Directorship: Frank Neese              #
                  # Max Planck Institute for Chemical Energy Conversion #
                  #                  D-45470 Muelheim/Ruhr              #
                  #                       Germany                       #
                  #                                                     #
                  #                  All rights reserved                #
                  #                        -***-                        #
                  #######################################################


                         Program Version 3.0.3 - RELEASE   -


 With contributions from (in alphabetic order):
   Ute Becker             : Parallelization
   Dmytro Bykov           : SCF Hessian
   Dmitry Ganyushin       : Spin-Orbit,Spin-Spin,Magnetic field MRCI
   Andreas Hansen         : Spin unrestricted coupled pair/coupled cluster methods
   Dimitrios Liakos       : Extrapolation schemes; parallel MDCI
   Robert Izsak           : Overlap fitted RIJCOSX, COSX-SCS-MP3
   Christian Kollmar      : KDIIS, OOCD, Brueckner-CCSD(T), CCSD density
   Simone Kossmann        : Meta GGA functionals, TD-DFT gradient, OOMP2, MP2 Hessian
   Taras Petrenko         : DFT Hessian,TD-DFT gradient, ASA and ECA modules, normal mode analysis, Resonance Raman, ABS, FL, XAS/XES, NRVS
   Christoph Reimann      : Effective Core Potentials
   Michael Roemelt        : Restricted open shell CIS
   Christoph Riplinger    : Improved optimizer, TS searches, QM/MM, DLPNO-CCSD
   Barbara Sandhoefer     : DKH picture change effects
   Igor Schapiro          : Molecular dynamics
   Kantharuban Sivalingam : CASSCF convergence, NEVPT2
   Boris Wezisla          : Elementary symmetry handling
   Frank Wennmohs         : Technical directorship


 We gratefully acknowledge several colleagues who have allowed us to
 interface, adapt or use parts of their codes:
   Stefan Grimme, W. Hujo, H. Kruse, T. Risthaus : VdW corrections, initial TS optimization,
                                                   DFT functionals, gCP
   Ed Valeev                                     : LibInt (2-el integral package), F12 methods
   Garnet Chan, S. Sharma, R. Olivares           : DMRG
   Ulf Ekstrom                                   : XCFun DFT Library
   Mihaly Kallay                                 : mrcc  (arbitrary order and MRCC methods)
   Andreas Klamt, Michael Diedenhofen            : otool_cosmo (COSMO solvation model)
   Frank Weinhold                                : gennbo (NPA and NBO analysis)
   Christopher J. Cramer and Donald G. Truhlar   : smd solvation model


 Your calculation uses the libint2 library for the computation of 2-el integrals
 For citations please refer to: http://libint.valeyev.net

 This ORCA versions uses:
   CBLAS   interface :  Fast vector & matrix operations
   LAPACKE interface :  Fast linear algebra routines
   SCALAPACK package :  Parallel linear algebra routines


leaving
================================================================================
                                        WARNINGS
                       Please study these warnings very carefully!
================================================================================
Now building the actual basis set

WARNING: Direct SCF is incompatible with Method<>HF and Method<>DFT
  ===> : conventional SCF is chosen

WARNING: The NDO methods need Guess=HUECKEL or Guess=HCORE or Guess=MOREAD
  ===> : Guess is set to Hueckel

WARNING: The NDO methods need %rel::SOCType==1
  ===> : %rel::SOCType is set to 1

WARNING: The NDO methods cannot have frozencore=1
  ===> : %method FrozenCore=0 end


INFO   : the flag for use of LIBINT has been found!

================================================================================
                                       INPUT FILE
================================================================================
NAME = /Users/mattyjones/GoogleDrive/Boise/Code/MorphCT/tests/output_EZ/donor_polymer/chromophores/input_orca/pair/00002-00020.inp
|  1> # ================================================================
|  2> # Orca input file made by Matty Jones
|  3> # ================================================================
|  4> ! ZINDO/S 
|  5> ! NOPOP
|  6> ! NOMOPRINT
|  7> * xyz 0   1
|  8>  C  15.23271  9.00531  -4.32413
|  9>  C  14.39883  7.89300  -4.20042
| 10>  C  14.93876  6.84570  -3.39054
| 11>  C  16.20538  7.13248  -2.87213
| 12>  S  16.58525  8.64547  -3.43517
| 13>  H  13.29013  7.93464  -4.45456
| 14>  C  14.07339  5.50607  -3.18774
| 15>  C  12.39935  5.67828  -3.08464
| 16>  C  11.85788  5.65029  -4.69600
| 17>  H  10.82831  6.17151  -4.72272
| 18>  H  12.59183  6.22761  -5.37256
| 19>  H  11.94215  4.80430  -2.49915
| 20>  H  12.13150  6.68029  -2.59691
| 21>  H  14.31995  5.00473  -2.15839
| 22>  H  14.33121  4.74763  -4.02910
| 23>  C  11.74149  4.13371  -5.27291
| 24>  C  11.31654  3.98522  -6.90204
| 25>  C  11.03245  5.41674  -7.73724
| 26>  H  10.48935  5.17062  -8.73054
| 27>  H  12.04064  5.93587  -7.96705
| 28>  H  10.36839  6.11785  -7.10075
| 29>  H  12.17727  3.43368  -7.43840
| 30>  H  10.35932  3.34525  -6.95831
| 31>  H  12.75995  3.59671  -5.14734
| 32>  H  10.94885  3.55803  -4.65541
| 33>  C  -15.29056  -10.32725  4.75945
| 34>  C  -14.41857  -9.24789  4.90956
| 35>  C  -14.97625  -8.14166  5.62336
| 36>  C  -16.29525  -8.34855  6.03899
| 37>  S  -16.69642  -9.86793  5.50890
| 38>  H  -13.32540  -9.24699  4.58336
| 39>  C  -13.89093  -6.93353  5.75603
| 40>  C  -14.00163  -5.30149  5.28813
| 41>  C  -12.43958  -4.64171  5.56323
| 42>  H  -12.38061  -4.44427  6.70252
| 43>  H  -11.67371  -5.46995  5.29937
| 44>  H  -14.26019  -5.22806  4.17507
| 45>  H  -14.77060  -4.75149  5.93296
| 46>  H  -13.64080  -6.85066  6.90200
| 47>  H  -12.89953  -7.27818  5.23567
| 48>  C  -11.97694  -3.28629  4.78132
| 49>  C  -11.18665  -3.53224  3.29351
| 50>  C  -9.50491  -3.66326  3.34162
| 51>  H  -9.14409  -3.66350  4.44016
| 52>  H  -9.03503  -2.76768  2.77821
| 53>  H  -9.18420  -4.65026  2.82819
| 54>  H  -11.60446  -4.50003  2.82881
| 55>  H  -11.44664  -2.63823  2.61348
| 56>  H  -12.90561  -2.63253  4.56848
| 57>  H  -11.24729  -2.69093  5.45315
| 58>  H  15.04164  9.89297  -4.87108
| 59>  H  16.79855  6.51263  -2.24961
| 60>  H  -15.09524  -11.24676  4.26961
| 61>  H  -16.91000  -7.67524  6.57967
| 62> *
| 63> 
| 64>                          ****END OF INPUT****
================================================================================

                       ****************************
                       * Single Point Calculation *
                       ****************************

---------------------------------
CARTESIAN COORDINATES (ANGSTROEM)
---------------------------------
  C     15.232710    9.005310   -4.324130
  C     14.398830    7.893000   -4.200420
  C     14.938760    6.845700   -3.390540
  C     16.205380    7.132480   -2.872130
  S     16.585250    8.645470   -3.435170
  H     13.290130    7.934640   -4.454560
  C     14.073390    5.506070   -3.187740
  C     12.399350    5.678280   -3.084640
  C     11.857880    5.650290   -4.696000
  H     10.828310    6.171510   -4.722720
  H     12.591830    6.227610   -5.372560
  H     11.942150    4.804300   -2.499150
  H     12.131500    6.680290   -2.596910
  H     14.319950    5.004730   -2.158390
  H     14.331210    4.747630   -4.029100
  C     11.741490    4.133710   -5.272910
  C     11.316540    3.985220   -6.902040
  C     11.032450    5.416740   -7.737240
  H     10.489350    5.170620   -8.730540
  H     12.040640    5.935870   -7.967050
  H     10.368390    6.117850   -7.100750
  H     12.177270    3.433680   -7.438400
  H     10.359320    3.345250   -6.958310
  H     12.759950    3.596710   -5.147340
  H     10.948850    3.558030   -4.655410
  C    -15.290560  -10.327250    4.759450
  C    -14.418570   -9.247890    4.909560
  C    -14.976250   -8.141660    5.623360
  C    -16.295250   -8.348550    6.038990
  S    -16.696420   -9.867930    5.508900
  H    -13.325400   -9.246990    4.583360
  C    -13.890930   -6.933530    5.756030
  C    -14.001630   -5.301490    5.288130
  C    -12.439580   -4.641710    5.563230
  H    -12.380610   -4.444270    6.702520
  H    -11.673710   -5.469950    5.299370
  H    -14.260190   -5.228060    4.175070
  H    -14.770600   -4.751490    5.932960
  H    -13.640800   -6.850660    6.902000
  H    -12.899530   -7.278180    5.235670
  C    -11.976940   -3.286290    4.781320
  C    -11.186650   -3.532240    3.293510
  C     -9.504910   -3.663260    3.341620
  H     -9.144090   -3.663500    4.440160
  H     -9.035030   -2.767680    2.778210
  H     -9.184200   -4.650260    2.828190
  H    -11.604460   -4.500030    2.828810
  H    -11.446640   -2.638230    2.613480
  H    -12.905610   -2.632530    4.568480
  H    -11.247290   -2.690930    5.453150
  H     15.041640    9.892970   -4.871080
  H     16.798550    6.512630   -2.249610
  H    -15.095240  -11.246760    4.269610
  H    -16.910000   -7.675240    6.579670

----------------------------
CARTESIAN COORDINATES (A.U.)
----------------------------
  NO LB      ZA    FRAG    MASS        X           Y           Z
   0 C     4.0000    0    12.011         28.785650177443593         17.017569651062388         -8.171421467472902
   1 C     4.0000    0    12.011         27.209845348889335         14.915608375040438         -7.937643447445504
   2 C     4.0000    0    12.011         28.230165180377437         12.936498194984713         -6.407192046105361
   3 C     4.0000    0    12.011         30.623730096124778         13.478433855670650         -5.427539121019244
   4 S     6.0000    0    32.060         31.341580362617435         16.337570599032162         -6.491530523462266
   5 H     1.0000    0     1.008         25.114705984210843         14.994296571256919         -8.417898447120251
   6 C     4.0000    0    12.011         26.594852875866003         10.404964374199787         -6.023955586146131
   7 C     4.0000    0    12.011         23.431375738636472         10.730394111722365         -5.829124821738850
   8 C     4.0000    0    12.011         22.408145728902131         10.677500677233908         -8.874153924894197
   9 H     1.0000    0     1.008         20.462540393200829         11.662463732756343         -8.924647407192573
  10 H     1.0000    0     1.008         23.795110224893634         11.768477368869327        -10.152667038059960
  11 H     1.0000    0     1.008         22.567392950207676          9.078811265197869         -4.722709067589297
  12 H     1.0000    0     1.008         22.925212593665666         12.623918595172798         -4.907448694441437
  13 H     1.0000    0     1.008         27.060783751445630          9.457569074219707         -4.078765990194290
  14 H     1.0000    0     1.008         27.082062067713583          8.971720485188552         -7.613895566182115
  15 C     4.0000    0    12.011         22.188200504175040          7.811579817051617         -9.964355828814709
  16 C     4.0000    0    12.011         21.385161383565201          7.530974383425651        -13.042965365369836
  17 C     4.0000    0    12.011         20.848309086179516         10.236155138656601        -14.621264632420864
  18 H     1.0000    0     1.008         19.821998822846879          9.771055742575903        -16.498329601244844
  19 H     1.0000    0     1.008         22.753512077137579         11.217168666559141        -15.055542595257309
  20 H     1.0000    0     1.008         19.593417549687768         11.561061028410130        -13.418472845441327
  21 H     1.0000    0     1.008         23.011705358815242          6.488714831522723        -14.056538874559838
  22 H     1.0000    0     1.008         19.576277733653100          6.321606349500067        -13.149300254925585
  23 H     1.0000    0     1.008         24.112810982528476          6.796796883135904         -9.727062918178214
  24 H     1.0000    0     1.008         20.690327981383696          6.723702276275831         -8.797449941118334
  25 C     4.0000    0    12.011        -28.894970834290934        -19.515674216538244          8.994057048091502
  26 C     4.0000    0    12.011        -27.247148542772944        -17.475979416629006          9.277723838054420
  27 C     4.0000    0    12.011        -28.301011013138147        -15.385507675501298         10.626610352447409
  28 C     4.0000    0    12.011        -30.793559783780275        -15.776473115348265         11.412037225489099
  29 S     6.0000    0    32.060        -31.551661216925464        -18.647685208705536         10.410312299158782
  30 H     1.0000    0     1.008        -25.181356624954248        -17.474278663108475          8.661295173169307
  31 C     4.0000    0    12.011        -26.250053445470733        -13.102472841327016         10.877320318634743
  32 C     4.0000    0    12.011        -26.459246128495817        -10.018364201722177          9.993117460572988
  33 C     4.0000    0    12.011        -23.507399421004123         -8.771560693083613         10.512981120014725
  34 H     1.0000    0     1.008        -23.395962270886788         -8.398453165202202         12.665927207129867
  35 H     1.0000    0     1.008        -22.060114866817855        -10.336707466242551         10.014357982318263
  36 H     1.0000    0     1.008        -26.947853717682491         -9.879601611708340          7.889738889950600
  37 H     1.0000    0     1.008        -27.912388833697239         -8.979014828065489         11.211669563509428
  38 H     1.0000    0     1.008        -25.777376247593011        -12.945871236608962         13.042889776324479
  39 H     1.0000    0     1.008        -24.376578956301206        -13.753766953382975          9.893982427587479
  40 C     4.0000    0    12.011        -22.633136522406797         -6.210188096644070          9.035385358640360
  41 C     4.0000    0    12.011        -21.139704856030171         -6.674966239282002          6.223831919330982
  42 C     4.0000    0    12.011        -17.961676827569445         -6.922558157348365          6.314746643633932
  43 H     1.0000    0     1.008        -17.279825843927977         -6.923011691620506          8.390686390791783
  44 H     1.0000    0     1.008        -17.073732311762527         -5.230157226331170          5.250056042521360
  45 H     1.0000    0     1.008        -17.355622759159562         -8.787717851528640          5.344504554694745
  46 H     1.0000    0     1.008        -21.929251332043808         -8.503824294429650          5.345676184897775
  47 H     1.0000    0     1.008        -21.631014753588357         -4.985532178295064          4.938761456480512
  48 H     1.0000    0     1.008        -24.388068491195444         -4.974760739331713          8.633176048296560
  49 H     1.0000    0     1.008        -21.254297848791154         -5.085120745552714         10.304960067192674
  50 H     1.0000    0     1.008         28.424580205035255         18.695003951098926         -9.205007176421130
  51 H     1.0000    0     1.008         31.744658946982838         12.307087111559561         -4.251146808130587
  52 H     1.0000    0     1.008        -28.525869525813437        -21.253296293940178          8.068393598651516
  53 H     1.0000    0     1.008        -31.955268924608365        -14.504101612117747         12.433774351577641

--------------------------------
INTERNAL COORDINATES (ANGSTROEM)
--------------------------------
 C      0   0   0   0.000000     0.000     0.000
 C      1   0   0   1.395670     0.000     0.000
 C      2   1   0   1.429779   114.102     0.000
 C      3   2   1   1.398327   113.693     0.000
 S      1   2   3   1.658041   105.480     0.000
 H      2   1   3   1.138216   122.211   163.049
 C      3   2   1   1.607670   118.591   180.620
 C      7   3   2   1.686030   117.197   324.253
 C      8   7   3   1.700134   104.867    86.554
 H      9   8   7   1.154296   107.372   202.258
 H      9   8   7   1.153132   110.189   321.028
 H      8   7   3   1.147027   110.435   205.178
 H      8   7   3   1.146145   110.325   328.058
 H      7   3   2   1.171194   110.747   208.537
 H      7   3   2   1.161718   109.463    89.470
 C      9   8   7   1.626772   111.978    80.891
 C     16   9   8   1.690176   116.214   184.164
 C     17  16   9   1.681522   116.515   358.854
 H     18  17  16   1.158524   108.917   194.851
 H     18  17  16   1.157046   109.475    75.172
 H     18  17  16   1.156568   109.861   314.609
 H     17  16   9   1.154441   107.598   119.666
 H     17  16   9   1.152822   107.733   237.455
 H     16   9   8   1.158187   109.322   304.768
 H     16   9   8   1.158012   108.864    62.866
 C     25  16   9  31.143976   163.644   102.677
 C     26  25  16   1.395678    33.000   250.984
 C     27  26  25   1.429777   114.102   163.655
 C     28  27  26   1.398325   113.693     0.000
 S     26  25  16   1.658039   136.678   274.268
 H     27  26  25   1.140801   124.649   338.653
 C     28  27  26   1.629447   110.763   179.779
 C     32  28  27   1.701393   130.202   124.200
 C     33  32  28   1.717845   105.380   186.085
 H     34  33  32   1.157774   105.628   281.291
 H     34  33  32   1.158516   106.862    36.361
 H     33  32  28   1.145054   110.092   304.255
 H     33  32  28   1.144387   110.474    67.734
 H     32  28  27   1.175874   105.860   246.322
 H     32  28  27   1.171508   108.022   359.372
 C     34  33  32   1.631742   120.007   158.621
 C     41  34  33   1.702536   115.491   269.162
 C     42  41  34   1.687522   116.673   269.204
 H     43  42  41   1.156279   109.760     5.477
 H     43  42  41   1.157705   109.302   245.215
 H     43  42  41   1.157858   109.243   125.614
 H     42  41  34   1.152011   107.789    30.726
 H     42  41  34   1.152948   107.382   148.467
 H     41  34  33   1.155479   109.291    29.944
 H     41  34  33   1.156805   109.150   148.859
 H      1   2   3   1.060001   127.260   180.000
 H      4   3   2   1.059998   127.206   179.999
 H     26  25  16   1.059996    95.268    83.983
 H     29  28  27   1.059999   127.206   180.000

---------------------------
INTERNAL COORDINATES (A.U.)
---------------------------
 C      0   0   0   0.000000     0.000     0.000
 C      1   0   0   2.637433     0.000     0.000
 C      2   1   0   2.701890   114.102     0.000
 C      3   2   1   2.642455   113.693     0.000
 S      1   2   3   3.133243   105.480     0.000
 H      2   1   3   2.150917   122.211   163.049
 C      3   2   1   3.038055   118.591   180.620
 C      7   3   2   3.186134   117.197   324.253
 C      8   7   3   3.212787   104.867    86.554
 H      9   8   7   2.181303   107.372   202.258
 H      9   8   7   2.179105   110.189   321.028
 H      8   7   3   2.167567   110.435   205.178
 H      8   7   3   2.165900   110.325   328.058
 H      7   3   2   2.213236   110.747   208.537
 H      7   3   2   2.195329   109.463    89.470
 C      9   8   7   3.074153   111.978    80.891
 C     16   9   8   3.193971   116.214   184.164
 C     17  16   9   3.177616   116.515   358.854
 H     18  17  16   2.189293   108.917   194.851
 H     18  17  16   2.186500   109.475    75.172
 H     18  17  16   2.185598   109.861   314.609
 H     17  16   9   2.181578   107.598   119.666
 H     17  16   9   2.178517   107.733   237.455
 H     16   9   8   2.188657   109.322   304.768
 H     16   9   8   2.188326   108.864    62.866
 C     25  16   9  58.853585   163.644   102.677
 C     26  25  16   2.637450    33.000   250.984
 C     27  26  25   2.701887   114.102   163.655
 C     28  27  26   2.642451   113.693     0.000
 S     26  25  16   3.133239   136.678   274.268
 H     27  26  25   2.155802   124.649   338.653
 C     28  27  26   3.079209   110.763   179.779
 C     32  28  27   3.215168   130.202   124.200
 C     33  32  28   3.246256   105.380   186.085
 H     34  33  32   2.187877   105.628   281.291
 H     34  33  32   2.189279   106.862    36.361
 H     33  32  28   2.163838   110.092   304.255
 H     33  32  28   2.162577   110.474    67.734
 H     32  28  27   2.222080   105.860   246.322
 H     32  28  27   2.213830   108.022   359.372
 C     34  33  32   3.083546   120.007   158.621
 C     41  34  33   3.217326   115.491   269.162
 C     42  41  34   3.188954   116.673   269.204
 H     43  42  41   2.185051   109.760     5.477
 H     43  42  41   2.187746   109.302   245.215
 H     43  42  41   2.188034   109.243   125.614
 H     42  41  34   2.176985   107.789    30.726
 H     42  41  34   2.178756   107.382   148.467
 H     41  34  33   2.183538   109.291    29.944
 H     41  34  33   2.186045   109.150   148.859
 H      1   2   3   2.003112   127.260   180.000
 H      4   3   2   2.003106   127.206   179.999
 H     26  25  16   2.003102    95.268    83.983
 H     29  28  27   2.003109   127.206   180.000

----------------------------
SLATER BASIS SET DIM= 120
----------------------------
  0 C     2 shells
 l=0 nsto= 1
    2       1.625000000000        1.000000000000
 l=1 nsto= 1
    2       1.625000000000        1.000000000000
  1 C     2 shells
 l=0 nsto= 1
    2       1.625000000000        1.000000000000
 l=1 nsto= 1
    2       1.625000000000        1.000000000000
  2 C     2 shells
 l=0 nsto= 1
    2       1.625000000000        1.000000000000
 l=1 nsto= 1
    2       1.625000000000        1.000000000000
  3 C     2 shells
 l=0 nsto= 1
    2       1.625000000000        1.000000000000
 l=1 nsto= 1
    2       1.625000000000        1.000000000000
  4 S     2 shells
 l=0 nsto= 1
    3       1.925000000000        1.000000000000
 l=1 nsto= 1
    3       1.925000000000        1.000000000000
  5 H     1 shells
 l=0 nsto= 1
    1       1.200000000000        1.000000000000
  6 C     2 shells
 l=0 nsto= 1
    2       1.625000000000        1.000000000000
 l=1 nsto= 1
    2       1.625000000000        1.000000000000
  7 C     2 shells
 l=0 nsto= 1
    2       1.625000000000        1.000000000000
 l=1 nsto= 1
    2       1.625000000000        1.000000000000
  8 C     2 shells
 l=0 nsto= 1
    2       1.625000000000        1.000000000000
 l=1 nsto= 1
    2       1.625000000000        1.000000000000
  9 H     1 shells
 l=0 nsto= 1
    1       1.200000000000        1.000000000000
 10 H     1 shells
 l=0 nsto= 1
    1       1.200000000000        1.000000000000
 11 H     1 shells
 l=0 nsto= 1
    1       1.200000000000        1.000000000000
 12 H     1 shells
 l=0 nsto= 1
    1       1.200000000000        1.000000000000
 13 H     1 shells
 l=0 nsto= 1
    1       1.200000000000        1.000000000000
 14 H     1 shells
 l=0 nsto= 1
    1       1.200000000000        1.000000000000
 15 C     2 shells
 l=0 nsto= 1
    2       1.625000000000        1.000000000000
 l=1 nsto= 1
    2       1.625000000000        1.000000000000
 16 C     2 shells
 l=0 nsto= 1
    2       1.625000000000        1.000000000000
 l=1 nsto= 1
    2       1.625000000000        1.000000000000
 17 C     2 shells
 l=0 nsto= 1
    2       1.625000000000        1.000000000000
 l=1 nsto= 1
    2       1.625000000000        1.000000000000
 18 H     1 shells
 l=0 nsto= 1
    1       1.200000000000        1.000000000000
 19 H     1 shells
 l=0 nsto= 1
    1       1.200000000000        1.000000000000
 20 H     1 shells
 l=0 nsto= 1
    1       1.200000000000        1.000000000000
 21 H     1 shells
 l=0 nsto= 1
    1       1.200000000000        1.000000000000
 22 H     1 shells
 l=0 nsto= 1
    1       1.200000000000        1.000000000000
 23 H     1 shells
 l=0 nsto= 1
    1       1.200000000000        1.000000000000
 24 H     1 shells
 l=0 nsto= 1
    1       1.200000000000        1.000000000000
 25 C     2 shells
 l=0 nsto= 1
    2       1.625000000000        1.000000000000
 l=1 nsto= 1
    2       1.625000000000        1.000000000000
 26 C     2 shells
 l=0 nsto= 1
    2       1.625000000000        1.000000000000
 l=1 nsto= 1
    2       1.625000000000        1.000000000000
 27 C     2 shells
 l=0 nsto= 1
    2       1.625000000000        1.000000000000
 l=1 nsto= 1
    2       1.625000000000        1.000000000000
 28 C     2 shells
 l=0 nsto= 1
    2       1.625000000000        1.000000000000
 l=1 nsto= 1
    2       1.625000000000        1.000000000000
 29 S     2 shells
 l=0 nsto= 1
    3       1.925000000000        1.000000000000
 l=1 nsto= 1
    3       1.925000000000        1.000000000000
 30 H     1 shells
 l=0 nsto= 1
    1       1.200000000000        1.000000000000
 31 C     2 shells
 l=0 nsto= 1
    2       1.625000000000        1.000000000000
 l=1 nsto= 1
    2       1.625000000000        1.000000000000
 32 C     2 shells
 l=0 nsto= 1
    2       1.625000000000        1.000000000000
 l=1 nsto= 1
    2       1.625000000000        1.000000000000
 33 C     2 shells
 l=0 nsto= 1
    2       1.625000000000        1.000000000000
 l=1 nsto= 1
    2       1.625000000000        1.000000000000
 34 H     1 shells
 l=0 nsto= 1
    1       1.200000000000        1.000000000000
 35 H     1 shells
 l=0 nsto= 1
    1       1.200000000000        1.000000000000
 36 H     1 shells
 l=0 nsto= 1
    1       1.200000000000        1.000000000000
 37 H     1 shells
 l=0 nsto= 1
    1       1.200000000000        1.000000000000
 38 H     1 shells
 l=0 nsto= 1
    1       1.200000000000        1.000000000000
 39 H     1 shells
 l=0 nsto= 1
    1       1.200000000000        1.000000000000
 40 C     2 shells
 l=0 nsto= 1
    2       1.625000000000        1.000000000000
 l=1 nsto= 1
    2       1.625000000000        1.000000000000
 41 C     2 shells
 l=0 nsto= 1
    2       1.625000000000        1.000000000000
 l=1 nsto= 1
    2       1.625000000000        1.000000000000
 42 C     2 shells
 l=0 nsto= 1
    2       1.625000000000        1.000000000000
 l=1 nsto= 1
    2       1.625000000000        1.000000000000
 43 H     1 shells
 l=0 nsto= 1
    1       1.200000000000        1.000000000000
 44 H     1 shells
 l=0 nsto= 1
    1       1.200000000000        1.000000000000
 45 H     1 shells
 l=0 nsto= 1
    1       1.200000000000        1.000000000000
 46 H     1 shells
 l=0 nsto= 1
    1       1.200000000000        1.000000000000
 47 H     1 shells
 l=0 nsto= 1
    1       1.200000000000        1.000000000000
 48 H     1 shells
 l=0 nsto= 1
    1       1.200000000000        1.000000000000
 49 H     1 shells
 l=0 nsto= 1
    1       1.200000000000        1.000000000000
 50 H     1 shells
 l=0 nsto= 1
    1       1.200000000000        1.000000000000
 51 H     1 shells
 l=0 nsto= 1
    1       1.200000000000        1.000000000000
 52 H     1 shells
 l=0 nsto= 1
    1       1.200000000000        1.000000000000
 53 H     1 shells
 l=0 nsto= 1
    1       1.200000000000        1.000000000000
------------------------------------------------------------------------------
                           ORCA NDO INTEGRAL CALCULATION
------------------------------------------------------------------------------

--------------
NDO PARAMETERS
--------------

Gamma integral treatment              ... Mataga-Nishimoto
Nuclear repulsuion treatment          ... Direct (ZA*ZB/RAB)
Interaction factors:
s-s (sigma) =    1.0000
s-p (sigma) =    1.0000
s-d (sigma) =    1.0000
p-p (sigma) =    1.2670  p-p(pi) =    0.5850
p-d (sigma) =    1.0000  p-d(pi) =    1.0000
d-d (sigma) =    1.0000  d-d(pi) =    1.0000 d-d (delta) =    1.0000

fGamma parameter for Mataga-Nishimoto gamma integrals:    1.2000

--------------------------
Parameters for Element H :
--------------------------
 One-electron parameters (in eV)
  U(s)  =   -13.060000 Beta(s) =    12.000000 Neff(s) =     1.000000
 One-center electron repulsion parameters (in eV)
  G(s,s)=    12.850000
--------------------------
Parameters for Element C :
--------------------------
 One-electron parameters (in eV)
  U(s)  =   -50.870766 Beta(s) =    17.000000 Neff(s) =     2.000000
  U(p)  =   -41.599980 Beta(p) =    17.000000 Neff(p) =     2.000000 
 One-center electron repulsion parameters (in eV)
  G(s,s)=    11.110000
  G(s,p)=    11.110000 G(p,p)  =    11.110000
 Slater-Condon parameters (in eV)
 F2(p,p)=     4.5098 G1(s,p)=    6.8977
--------------------------
Parameters for Element S :
--------------------------
 One-electron parameters (in eV)
  U(s)  =   -69.509597 Beta(s) =    15.000000 Neff(s) =     2.000000
  U(p)  =   -60.725746 Beta(p) =    15.000000 Neff(p) =     4.000000 
 One-center electron repulsion parameters (in eV)
  G(s,s)=    10.090000
  G(s,p)=    10.090000 G(p,p)  =    10.090000
 Slater-Condon parameters (in eV)
 F2(p,p)=     4.5377 G1(s,p)=    3.0756

 Number of atoms                    ....   54
 Number of basis functions          ....  120

 Overlap integrals                  .... done
 One electron matrix                .... done
 Nuclear repulsion                  .... done
 Integral list                      .... done
 Electron-electron repulsion        .... done
-------------------------------------------------------------------------------
                                 ORCA SCF
-------------------------------------------------------------------------------

------------
SCF SETTINGS
------------
Hamiltonian:
 ZDO-Hamiltonian        Method          .... INDO


General Settings:
 Integral files         IntName         .... /Users/mattyjones/GoogleDrive/Boise/Code/MorphCT/tests/output_EZ/donor_polymer/chromophores/input_orca/pair/00002-00020
 Hartree-Fock type      HFTyp           .... RHF
 Total Charge           Charge          ....    0
 Multiplicity           Mult            ....    1
 Number of Electrons    NEL             ....  124
 Basis Dimension        Dim             ....  120
 Nuclear Repulsion      ENuc            ....    660.1313923669 Eh

Convergence Acceleration:
 DIIS                   CNVDIIS         .... on
   Start iteration      DIISMaxIt       ....    12
   Startup error        DIISStart       ....  0.200000
   # of expansion vecs  DIISMaxEq       ....     5
   Bias factor          DIISBfac        ....   1.050
   Max. coefficient     DIISMaxC        ....  10.000
 Newton-Raphson         CNVNR           .... off
 SOSCF                  CNVSOSCF        .... on
   Start iteration      SOSCFMaxIt      ....   150
   Startup grad/error   SOSCFStart      ....  0.003300
 Level Shifting         CNVShift        .... on
   Level shift para.    LevelShift      ....    0.2500
   Turn off err/grad.   ShiftErr        ....    0.0010
 Zerner damping         CNVZerner       .... off
 Static damping         CNVDamp         .... on
   Fraction old density DampFac         ....    0.7000
   Max. Damping (<1)    DampMax         ....    0.9800
   Min. Damping (>=0)   DampMin         ....    0.0000
   Turn off err/grad.   DampErr         ....    0.1000
 Fernandez-Rico         CNVRico         .... off

SCF Procedure:
 Maximum # iterations   MaxIter         ....   125
 SCF integral mode      SCFMode         .... Conventional
 Integral Buffer length BufferLength    .... 1048576
 Integral index format  IndFormat       ....     0
 Integral value format  ValFormat       ....     0
 Integral Storage       Thresh          ....  1.000e-08 Eh

Convergence Tolerance:
 Convergence Check Mode ConvCheckMode   .... Total+1el-Energy
 Energy Change          TolE            ....  1.000e-06 Eh
 1-El. energy change                    ....  1.000e-03 Eh
 Orbital Gradient       TolG            ....  5.000e-05
 Orbital Rotation angle TolX            ....  5.000e-05
 DIIS Error             TolErr          ....  1.000e-06


Diagonalization of the overlap matrix:
Smallest eigenvalue                        ... 1.695e-01
Time for diagonalization                   ...    0.003 sec
Threshold for overlap eigenvalues          ... 1.000e-08
Number of eigenvalues below threshold      ... 0
Time for construction of square roots      ...    0.001 sec
Total time needed                          ...    0.004 sec

-------------------------------
INITIAL GUESS: EXTENDED HUECKEL
-------------------------------
EHT matrix was read from disk
EHT matrix was diagonalized
Initial density was built
                      ------------------
                      INITIAL GUESS DONE
                      ------------------

 InCore treatment chosen:
   Memory dedicated               ...    1024 MB
   Memory needed                  ...      0 MB
   Number of tiny    integrals    ...       0
   Number of small   integrals    ...       0
   Number of regular integrals    ...    7392

--------------
SCF ITERATIONS
--------------
ITER       Energy         Delta-E        Max-DP      RMS-DP      [F,P]     Damp
  0    -21.1968693148   0.000000000000 0.04296475  0.00145057  0.0850954 0.7000
  1    -21.2387817625  -0.041912447727 0.04117147  0.00136738  0.0590021 0.7000
                               ***Turning on DIIS***
  2    -21.2698010284  -0.031019265900 0.10631575  0.00351208  0.0382437 0.0000
  3    -21.3489881397  -0.079187111271 0.01691332  0.00072774  0.0197314 0.0000
  4    -21.3367789464   0.012209193369 0.01282485  0.00050210  0.0076694 0.0000
  5    -21.3535550635  -0.016776117118 0.00898221  0.00033952  0.0044809 0.0000
  6    -21.3561942702  -0.002639206741 0.00675454  0.00024067  0.0024465 0.0000
                      *** Initiating the SOSCF procedure ***
                           *** Shutting down DIIS ***
                      *** Re-Reading the Fockian *** 
                      *** Removing any level shift *** 
ITER      Energy       Delta-E        Grad      Rot      Max-DP    RMS-DP
  7    -21.35186684   0.0043274337  0.003054  0.003054  0.004028  0.000135
  8    -21.34942822   0.0024386188  0.000818  0.002259  0.001991  0.000063
  9    -21.34944304  -0.0000148206  0.000366  0.002246  0.002241  0.000067
 10    -21.34944848  -0.0000054409  0.000033  0.000097  0.000153  0.000005
                 **** Energy Check signals convergence ****
              ***Rediagonalizing the Fockian in SOSCF/NRSCF***

               *****************************************************
               *                     SUCCESS                       *
               *           SCF CONVERGED AFTER  11 CYCLES          *
               *****************************************************


----------------
TOTAL SCF ENERGY
----------------

Total Energy       :          -21.34944853 Eh            -580.94803 eV

Components:
Nuclear Repulsion  :          660.13139237 Eh           17963.08841 eV
Electronic Energy  :         -681.48084090 Eh          -18544.03644 eV

One Electron Energy:        -1272.52280114 Eh          -34627.10583 eV
Two Electron Energy:          591.04196024 Eh           16083.06939 eV


---------------
SCF CONVERGENCE
---------------

  Last Energy change         ...   -5.4742e-08  Tolerance :   1.0000e-06
  Last MAX-Density change    ...    7.1183e-05  Tolerance :   1.0000e-05
  Last RMS-Density change    ...    1.5673e-06  Tolerance :   1.0000e-06
  Last Orbital Gradient      ...    1.4408e-05  Tolerance :   5.0000e-05
  Last Orbital Rotation      ...    3.0670e-05  Tolerance :   5.0000e-05

             **** THE GBW FILE WAS UPDATED (/Users/mattyjones/GoogleDrive/Boise/Code/MorphCT/tests/output_EZ/donor_polymer/chromophores/input_orca/pair/00002-00020.gbw) ****
             **** DENSITY FILE WAS UPDATED (/Users/mattyjones/GoogleDrive/Boise/Code/MorphCT/tests/output_EZ/donor_polymer/chromophores/input_orca/pair/00002-00020.scfp.tmp) ****
             **** ENERGY FILE WAS UPDATED (/Users/mattyjones/GoogleDrive/Boise/Code/MorphCT/tests/output_EZ/donor_polymer/chromophores/input_orca/pair/00002-00020.en.tmp) ****
----------------
ORBITAL ENERGIES
----------------

  NO   OCC          E(Eh)            E(eV) 
   0   2.0000      -1.563318       -42.5400 
   1   2.0000      -1.557395       -42.3789 
   2   2.0000      -1.420739       -38.6603 
   3   2.0000      -1.399452       -38.0810 
   4   2.0000      -1.296529       -35.2804 
   5   2.0000      -1.292067       -35.1589 
   6   2.0000      -1.169561       -31.8254 
   7   2.0000      -1.164385       -31.6845 
   8   2.0000      -1.115071       -30.3426 
   9   2.0000      -1.108466       -30.1629 
  10   2.0000      -1.062544       -28.9133 
  11   2.0000      -1.033519       -28.1235 
  12   2.0000      -0.987543       -26.8724 
  13   2.0000      -0.949888       -25.8478 
  14   2.0000      -0.910861       -24.7858 
  15   2.0000      -0.887645       -24.1540 
  16   2.0000      -0.854815       -23.2607 
  17   2.0000      -0.846637       -23.0382 
  18   2.0000      -0.834226       -22.7004 
  19   2.0000      -0.818738       -22.2790 
  20   2.0000      -0.785248       -21.3677 
  21   2.0000      -0.782382       -21.2897 
  22   2.0000      -0.728787       -19.8313 
  23   2.0000      -0.728624       -19.8269 
  24   2.0000      -0.708719       -19.2852 
  25   2.0000      -0.703420       -19.1410 
  26   2.0000      -0.684565       -18.6280 
  27   2.0000      -0.664816       -18.0906 
  28   2.0000      -0.656050       -17.8520 
  29   2.0000      -0.622923       -16.9506 
  30   2.0000      -0.616135       -16.7659 
  31   2.0000      -0.608692       -16.5634 
  32   2.0000      -0.592625       -16.1261 
  33   2.0000      -0.585076       -15.9207 
  34   2.0000      -0.577109       -15.7039 
  35   2.0000      -0.576312       -15.6822 
  36   2.0000      -0.568288       -15.4639 
  37   2.0000      -0.560566       -15.2538 
  38   2.0000      -0.552789       -15.0422 
  39   2.0000      -0.541101       -14.7241 
  40   2.0000      -0.537571       -14.6281 
  41   2.0000      -0.533319       -14.5123 
  42   2.0000      -0.528910       -14.3924 
  43   2.0000      -0.523954       -14.2575 
  44   2.0000      -0.514354       -13.9963 
  45   2.0000      -0.506914       -13.7938 
  46   2.0000      -0.495669       -13.4879 
  47   2.0000      -0.490938       -13.3591 
  48   2.0000      -0.489199       -13.3118 
  49   2.0000      -0.485735       -13.2175 
  50   2.0000      -0.475694       -12.9443 
  51   2.0000      -0.475634       -12.9427 
  52   2.0000      -0.472526       -12.8581 
  53   2.0000      -0.468446       -12.7471 
  54   2.0000      -0.461880       -12.5684 
  55   2.0000      -0.447609       -12.1801 
  56   2.0000      -0.436804       -11.8860 
  57   2.0000      -0.435822       -11.8593 
  58   2.0000      -0.356526        -9.7016 
  59   2.0000      -0.354584        -9.6487 
  60   2.0000      -0.305306        -8.3078 
  61   2.0000      -0.304440        -8.2842 
  62   0.0000       0.007390         0.2011 
  63   0.0000       0.007621         0.2074 
  64   0.0000       0.065452         1.7810 
  65   0.0000       0.069133         1.8812 
  66   0.0000       0.074940         2.0392 
  67   0.0000       0.082260         2.2384 
  68   0.0000       0.087379         2.3777 
  69   0.0000       0.088921         2.4197 
  70   0.0000       0.103317         2.8114 
  71   0.0000       0.105778         2.8784 
  72   0.0000       0.107170         2.9162 
  73   0.0000       0.107555         2.9267 
  74   0.0000       0.120536         3.2799 
  75   0.0000       0.125450         3.4137 
  76   0.0000       0.140911         3.8344 
  77   0.0000       0.144249         3.9252 
  78   0.0000       0.154726         4.2103 
  79   0.0000       0.156531         4.2594 
  80   0.0000       0.165475         4.5028 
  81   0.0000       0.167038         4.5453 
  82   0.0000       0.168455         4.5839 
  83   0.0000       0.172628         4.6975 
  84   0.0000       0.202667         5.5148 
  85   0.0000       0.205914         5.6032 
  86   0.0000       0.230718         6.2781 
  87   0.0000       0.231731         6.3057 
  88   0.0000       0.235410         6.4058 
  89   0.0000       0.236526         6.4362 
  90   0.0000       0.236527         6.4362 
  91   0.0000       0.238971         6.5027 
  92   0.0000       0.238993         6.5033 
  93   0.0000       0.239845         6.5265 
  94   0.0000       0.241730         6.5778 
  95   0.0000       0.243278         6.6199 
  96   0.0000       0.244386         6.6501 
  97   0.0000       0.244653         6.6574 
  98   0.0000       0.245627         6.6839 
  99   0.0000       0.246316         6.7026 
 100   0.0000       0.252079         6.8594 
 101   0.0000       0.259760         7.0684 
 102   0.0000       0.263927         7.1818 
 103   0.0000       0.265538         7.2256 
 104   0.0000       0.266455         7.2506 
 105   0.0000       0.270040         7.3482 
 106   0.0000       0.270218         7.3530 
 107   0.0000       0.283667         7.7190 
 108   0.0000       0.299251         8.1430 
 109   0.0000       0.299575         8.1518 
 110   0.0000       0.309968         8.4347 
 111   0.0000       0.310378         8.4458 
 112   0.0000       0.336339         9.1522 
 113   0.0000       0.341797         9.3008 
 114   0.0000       0.346922         9.4402 
 115   0.0000       0.350165         9.5285 
 116   0.0000       0.417040        11.3482 
 117   0.0000       0.421185        11.4610 
 118   0.0000       0.427553        11.6343 
 119   0.0000       0.430267        11.7081 
-------
TIMINGS
-------

Total SCF time: 0 days 0 hours 0 min 0 sec 

Total time                  ....       0.139 sec
Sum of individual times     ....       0.112 sec  ( 81.0%)

Fock matrix formation       ....       0.054 sec  ( 39.2%)
Diagonalization             ....       0.024 sec  ( 17.5%)
Density matrix formation    ....       0.006 sec  (  4.2%)
Population analysis         ....       0.000 sec  (  0.0%)
Initial guess               ....       0.003 sec  (  2.2%)
Orbital Transformation      ....       0.000 sec  (  0.0%)
Orbital Orthonormalization  ....       0.000 sec  (  0.0%)
DIIS solution               ....       0.017 sec  ( 12.4%)
SOSCF solution              ....       0.008 sec  (  5.5%)

-------------------------   --------------------
FINAL SINGLE POINT ENERGY       -21.349448533999
-------------------------   --------------------


                            ***************************************
                            *     ORCA property calculations      *
                            ***************************************

                                    ---------------------
                                    Active property flags
                                    ---------------------
   (+) Dipole Moment


------------------------------------------------------------------------------
                       ORCA ELECTRIC PROPERTIES CALCULATION
------------------------------------------------------------------------------

Dipole Moment Calculation                       ... on
Quadrupole Moment Calculation                   ... off
Polarizability Calculation                      ... off
GBWName                                         ... /Users/mattyjones/GoogleDrive/Boise/Code/MorphCT/tests/output_EZ/donor_polymer/chromophores/input_orca/pair/00002-00020.gbw
Electron density file                           ... /Users/mattyjones/GoogleDrive/Boise/Code/MorphCT/tests/output_EZ/donor_polymer/chromophores/input_orca/pair/00002-00020.scfp.tmp

-------------
DIPOLE MOMENT
-------------
                                X             Y             Z
Electronic contribution:     -8.60273     -36.63195      61.11828
Nuclear contribution   :      2.91446      19.20966     -32.57512
                        -----------------------------------------
Total Dipole Moment    :     -5.68827     -17.42229      28.54316
                        -----------------------------------------
Magnitude (a.u.)       :     33.92056
Magnitude (Debye)      :     86.21922


Timings for individual modules:

Sum of individual times         ...        0.235 sec (=   0.004 min)
STO integral calculation        ...        0.052 sec (=   0.001 min)  22.0 %
SCF iterations                  ...        0.184 sec (=   0.003 min)  78.0 %
                             ****ORCA TERMINATED NORMALLY****
TOTAL RUN TIME: 0 days 0 hours 0 minutes 0 seconds 537 msec

