
                                 *****************
                                 * O   R   C   A *
                                 *****************

           --- An Ab Initio, DFT and Semiempirical electronic structure package ---

                  #######################################################
                  #                        -***-                        #
                  #  Department of molecular theory and spectroscopy    #
                  #              Directorship: Frank Neese              #
                  # Max Planck Institute for Chemical Energy Conversion #
                  #                  D-45470 Muelheim/Ruhr              #
                  #                       Germany                       #
                  #                                                     #
                  #                  All rights reserved                #
                  #                        -***-                        #
                  #######################################################


                         Program Version 3.0.3 - RELEASE   -


 With contributions from (in alphabetic order):
   Ute Becker             : Parallelization
   Dmytro Bykov           : SCF Hessian
   Dmitry Ganyushin       : Spin-Orbit,Spin-Spin,Magnetic field MRCI
   Andreas Hansen         : Spin unrestricted coupled pair/coupled cluster methods
   Dimitrios Liakos       : Extrapolation schemes; parallel MDCI
   Robert Izsak           : Overlap fitted RIJCOSX, COSX-SCS-MP3
   Christian Kollmar      : KDIIS, OOCD, Brueckner-CCSD(T), CCSD density
   Simone Kossmann        : Meta GGA functionals, TD-DFT gradient, OOMP2, MP2 Hessian
   Taras Petrenko         : DFT Hessian,TD-DFT gradient, ASA and ECA modules, normal mode analysis, Resonance Raman, ABS, FL, XAS/XES, NRVS
   Christoph Reimann      : Effective Core Potentials
   Michael Roemelt        : Restricted open shell CIS
   Christoph Riplinger    : Improved optimizer, TS searches, QM/MM, DLPNO-CCSD
   Barbara Sandhoefer     : DKH picture change effects
   Igor Schapiro          : Molecular dynamics
   Kantharuban Sivalingam : CASSCF convergence, NEVPT2
   Boris Wezisla          : Elementary symmetry handling
   Frank Wennmohs         : Technical directorship


 We gratefully acknowledge several colleagues who have allowed us to
 interface, adapt or use parts of their codes:
   Stefan Grimme, W. Hujo, H. Kruse, T. Risthaus : VdW corrections, initial TS optimization,
                                                   DFT functionals, gCP
   Ed Valeev                                     : LibInt (2-el integral package), F12 methods
   Garnet Chan, S. Sharma, R. Olivares           : DMRG
   Ulf Ekstrom                                   : XCFun DFT Library
   Mihaly Kallay                                 : mrcc  (arbitrary order and MRCC methods)
   Andreas Klamt, Michael Diedenhofen            : otool_cosmo (COSMO solvation model)
   Frank Weinhold                                : gennbo (NPA and NBO analysis)
   Christopher J. Cramer and Donald G. Truhlar   : smd solvation model


 Your calculation uses the libint2 library for the computation of 2-el integrals
 For citations please refer to: http://libint.valeyev.net

 This ORCA versions uses:
   CBLAS   interface :  Fast vector & matrix operations
   LAPACKE interface :  Fast linear algebra routines
   SCALAPACK package :  Parallel linear algebra routines


leaving
================================================================================
                                        WARNINGS
                       Please study these warnings very carefully!
================================================================================
Now building the actual basis set

WARNING: Direct SCF is incompatible with Method<>HF and Method<>DFT
  ===> : conventional SCF is chosen

WARNING: The NDO methods need Guess=HUECKEL or Guess=HCORE or Guess=MOREAD
  ===> : Guess is set to Hueckel

WARNING: The NDO methods need %rel::SOCType==1
  ===> : %rel::SOCType is set to 1

WARNING: The NDO methods cannot have frozencore=1
  ===> : %method FrozenCore=0 end


INFO   : the flag for use of LIBINT has been found!

================================================================================
                                       INPUT FILE
================================================================================
NAME = /Users/mattyjones/GoogleDrive/Boise/Code/MorphCT/tests/output_EZ/donor_polymer/chromophores/input_orca/pair/00008-00018.inp
|  1> # ================================================================
|  2> # Orca input file made by Matty Jones
|  3> # ================================================================
|  4> ! ZINDO/S 
|  5> ! NOPOP
|  6> ! NOMOPRINT
|  7> * xyz 0   1
|  8>  C  18.47490  4.25660  2.44654
|  9>  C  17.79028  3.18054  3.01337
| 10>  C  18.54132  2.46297  3.99587
| 11>  C  19.82547  2.97500  4.20591
| 12>  S  19.96213  4.27038  3.17939
| 13>  H  16.74259  2.84575  2.70241
| 14>  C  17.96006  1.19871  4.80535
| 15>  C  17.13732  -0.12253  4.11204
| 16>  C  15.44439  -0.13992  3.94799
| 17>  H  14.97966  0.10356  4.97533
| 18>  H  15.14740  0.67518  3.18863
| 19>  H  17.40578  -1.04148  4.75846
| 20>  H  17.57146  -0.26164  3.05292
| 21>  H  17.22575  1.59911  5.62622
| 22>  H  18.83870  0.67334  5.36001
| 23>  C  14.93154  -1.60314  3.43071
| 24>  C  13.26646  -1.89334  3.32855
| 25>  C  12.58680  -2.59129  4.70412
| 26>  H  11.68792  -3.25053  4.39101
| 27>  H  12.22443  -1.75528  5.41732
| 28>  H  13.37532  -3.24567  5.24113
| 29>  H  13.08648  -2.61018  2.44385
| 30>  H  12.73386  -0.89196  3.12900
| 31>  H  15.36093  -1.78554  2.37012
| 32>  H  15.36263  -2.41141  4.14059
| 33>  C  -17.38454  -2.39676  -7.67166
| 34>  C  -16.79499  -1.94712  -6.48923
| 35>  C  -17.60100  -1.02802  -5.74770
| 36>  C  -18.83323  -0.75050  -6.34764
| 37>  S  -18.86024  -1.64435  -7.74433
| 38>  H  -15.97089  -2.52317  -5.93725
| 39>  C  -16.93469  -0.48334  -4.39019
| 40>  C  -15.32955  -0.00069  -4.74441
| 41>  C  -14.20196  0.55008  -3.62247
| 42>  H  -14.26933  1.70681  -3.61742
| 43>  H  -13.15835  0.25649  -4.03963
| 44>  H  -14.80547  -0.89864  -5.24718
| 45>  H  -15.44197  0.84472  -5.52682
| 46>  H  -17.51221  0.43847  -3.99432
| 47>  H  -16.90357  -1.31221  -3.58330
| 48>  C  -14.30765  0.00218  -2.09672
| 49>  C  -15.21608  0.94718  -1.03883
| 50>  C  -16.80276  0.44095  -0.82815
| 51>  H  -17.35205  0.40523  -1.84051
| 52>  H  -17.34378  1.18492  -0.12401
| 53>  H  -16.80093  -0.61228  -0.34619
| 54>  H  -14.69319  0.93841  -0.01102
| 55>  H  -15.23777  2.02712  -1.44450
| 56>  H  -13.24071  -0.08110  -1.65143
| 57>  H  -14.77739  -1.05702  -2.10560
| 58>  H  18.11909  4.92425  1.70409
| 59>  H  20.55816  2.61134  4.88009
| 60>  H  -16.97519  -3.07603  -8.37495
| 61>  H  -19.59133  -0.10415  -5.98553
| 62> *
| 63> 
| 64>                          ****END OF INPUT****
================================================================================

                       ****************************
                       * Single Point Calculation *
                       ****************************

---------------------------------
CARTESIAN COORDINATES (ANGSTROEM)
---------------------------------
  C     18.474900    4.256600    2.446540
  C     17.790280    3.180540    3.013370
  C     18.541320    2.462970    3.995870
  C     19.825470    2.975000    4.205910
  S     19.962130    4.270380    3.179390
  H     16.742590    2.845750    2.702410
  C     17.960060    1.198710    4.805350
  C     17.137320   -0.122530    4.112040
  C     15.444390   -0.139920    3.947990
  H     14.979660    0.103560    4.975330
  H     15.147400    0.675180    3.188630
  H     17.405780   -1.041480    4.758460
  H     17.571460   -0.261640    3.052920
  H     17.225750    1.599110    5.626220
  H     18.838700    0.673340    5.360010
  C     14.931540   -1.603140    3.430710
  C     13.266460   -1.893340    3.328550
  C     12.586800   -2.591290    4.704120
  H     11.687920   -3.250530    4.391010
  H     12.224430   -1.755280    5.417320
  H     13.375320   -3.245670    5.241130
  H     13.086480   -2.610180    2.443850
  H     12.733860   -0.891960    3.129000
  H     15.360930   -1.785540    2.370120
  H     15.362630   -2.411410    4.140590
  C    -17.384540   -2.396760   -7.671660
  C    -16.794990   -1.947120   -6.489230
  C    -17.601000   -1.028020   -5.747700
  C    -18.833230   -0.750500   -6.347640
  S    -18.860240   -1.644350   -7.744330
  H    -15.970890   -2.523170   -5.937250
  C    -16.934690   -0.483340   -4.390190
  C    -15.329550   -0.000690   -4.744410
  C    -14.201960    0.550080   -3.622470
  H    -14.269330    1.706810   -3.617420
  H    -13.158350    0.256490   -4.039630
  H    -14.805470   -0.898640   -5.247180
  H    -15.441970    0.844720   -5.526820
  H    -17.512210    0.438470   -3.994320
  H    -16.903570   -1.312210   -3.583300
  C    -14.307650    0.002180   -2.096720
  C    -15.216080    0.947180   -1.038830
  C    -16.802760    0.440950   -0.828150
  H    -17.352050    0.405230   -1.840510
  H    -17.343780    1.184920   -0.124010
  H    -16.800930   -0.612280   -0.346190
  H    -14.693190    0.938410   -0.011020
  H    -15.237770    2.027120   -1.444500
  H    -13.240710   -0.081100   -1.651430
  H    -14.777390   -1.057020   -2.105600
  H     18.119090    4.924250    1.704090
  H     20.558160    2.611340    4.880090
  H    -16.975190   -3.076030   -8.374950
  H    -19.591330   -0.104150   -5.985530

----------------------------
CARTESIAN COORDINATES (A.U.)
----------------------------
  NO LB      ZA    FRAG    MASS        X           Y           Z
   0 C     4.0000    0    12.011         34.912501351581739          8.043808261649199          4.623290575683700
   1 C     4.0000    0    12.011         33.618757045776562          6.010349557981898          5.694444040174282
   2 C     4.0000    0    12.011         35.038016961396778          4.654338776064025          7.551099966751912
   3 C     4.0000    0    12.011         37.464708776271756          5.621935248415724          7.948018043920732
   4 S     6.0000    0    32.060         37.722958749733429          8.069848687774636          6.008176372927888
   5 H     1.0000    0     1.008         31.638909872528608          5.377688145606402          5.106814801570129
   6 C     4.0000    0    12.011         33.939594748793709          2.265233613992744          9.080795477638485
   7 C     4.0000    0    12.011         32.384841469371345         -0.231548143189371          7.770629451729544
   8 C     4.0000    0    12.011         29.185667405472042         -0.264410480658262          7.460619879459762
   9 H     1.0000    0     1.008         28.307454979254818          0.195700038428885          9.402011125882421
  10 H     1.0000    0     1.008         28.624437640958767          1.275905291100951          6.025637442405320
  11 H     1.0000    0     1.008         32.892157347283842         -1.968111973956305          8.992186219218921
  12 H     1.0000    0     1.008         33.205247173151911         -0.494427945679156          5.769182708770868
  13 H     1.0000    0     1.008         32.551949951394000          3.021879958014813         10.632014969190424
  14 H     1.0000    0     1.008         35.599983719102283          1.272428195014536         10.128950975079247
  15 C     4.0000    0    12.011         28.216521357690524         -3.029495554334515          6.483102344904977
  16 C     4.0000    0    12.011         25.069976166620929         -3.577894078398463          6.290047923063582
  17 C     4.0000    0    12.011         23.785604902440010         -4.896828433568800          8.889498501101638
  18 H     1.0000    0     1.008         22.086967875180875         -6.142611490095046          8.297806351309555
  19 H     1.0000    0     1.008         23.100824843290965         -3.316998488349295         10.237251179814276
  20 H     1.0000    0     1.008         25.275691753559595         -6.133427421084189          9.904300332278689
  21 H     1.0000    0     1.008         24.729863257037781         -4.932525360238573          4.618207212383450
  22 H     1.0000    0     1.008         24.063508027694471         -1.685560122412399          5.912953073039596
  23 H     1.0000    0     1.008         29.027950862334972         -3.374181601161752          4.478877704529437
  24 H     1.0000    0     1.008         29.031163396762636         -4.556904496599046          7.824581132852996
  25 C     4.0000    0    12.011        -32.852019564199360         -4.529220008737100        -14.497336392558310
  26 C     4.0000    0    12.011        -31.737931521946081         -3.679523549880747        -12.262867520025804
  27 C     4.0000    0    12.011        -33.261069683147952         -1.942676260193725        -10.861578899939179
  28 C     4.0000    0    12.011        -35.589646917149736         -1.418239463507899        -11.995301196723894
  29 S     6.0000    0    32.060        -35.640688420026947         -3.107371168313410        -14.634662790710367
  30 H     1.0000    0     1.008        -30.180608214981579         -4.768100289326084        -11.219776488623951
  31 C     4.0000    0    12.011        -32.001926262854880         -0.913380229569498         -8.296256775879739
  32 C     4.0000    0    12.011        -28.968651256252521         -0.001303911032406         -8.965635567037326
  33 C     4.0000    0    12.011        -26.837814964904258          1.039500551747402         -6.845476228345716
  34 H     1.0000    0     1.008        -26.965125814546536          3.225403462638131         -6.835933111369414
  35 H     1.0000    0     1.008        -24.865677874282703          0.484695856089462         -7.633794382372305
  36 H     1.0000    0     1.008        -27.978283583987075         -1.698183492986994         -9.915733175388914
  37 H     1.0000    0     1.008        -29.181094268227948          1.596289459845960        -10.444176191478652
  38 H     1.0000    0     1.008        -33.093280899717080          0.828588217940451         -7.548170891244334
  39 H     1.0000    0     1.008        -31.943117985567248         -2.479717530192806         -6.771455655680021
  40 C     4.0000    0    12.011        -27.037540119998397          0.004119602971948         -3.962226579515367
  41 C     4.0000    0    12.011        -28.754224031836479          1.789910799527531         -1.963104199701414
  42 C     4.0000    0    12.011        -31.752614694006649          0.833274738752576         -1.564976697806885
  43 H     1.0000    0     1.008        -32.790622362108252          0.765773721248909         -3.478059846743403
  44 H     1.0000    0     1.008        -32.774994326980725          2.239174290605969         -0.234344937867574
  45 H     1.0000    0     1.008        -31.749156495181577         -1.157041517277304         -0.654204290302198
  46 H     1.0000    0     1.008        -27.766105133670393          1.773337901333042         -0.020824781995812
  47 H     1.0000    0     1.008        -28.795212191681230          3.830701640594448         -2.729709400449248
  48 H     1.0000    0     1.008        -25.021315718672454         -0.153256789461014         -3.120750429341573
  49 H     1.0000    0     1.008        -27.925220074146566         -1.997478318077442         -3.979007347584588
  50 H     1.0000    0     1.008         34.240117895871215          9.305483914961723          3.220263407553866
  51 H     1.0000    0     1.008         38.849292217334522          4.934717442553922          9.222033608887761
  52 H     1.0000    0     1.008        -32.078460171278692         -5.812854279725787        -15.826361885283786
  53 H     1.0000    0     1.008        -37.022248299275432         -0.196814976847898        -11.311012466369670

--------------------------------
INTERNAL COORDINATES (ANGSTROEM)
--------------------------------
 C      0   0   0   0.000000     0.000     0.000
 C      1   0   0   1.395674     0.000     0.000
 C      2   1   0   1.429781   114.102     0.000
 C      3   2   1   1.398332   113.693     0.000
 S      1   2   3   1.658045   105.479     0.000
 H      2   1   3   1.142994   124.400   183.012
 C      3   2   1   1.609806   123.368   179.032
 C      7   3   2   1.703894   125.361    47.243
 C      8   7   3   1.700949   121.854   268.885
 H      9   8   7   1.153553   108.235   307.998
 H      9   8   7   1.152917   108.221    66.567
 H      8   7   3   1.155162   106.078   147.643
 H      8   7   3   1.153067   106.588    31.234
 H      7   3   2   1.171904   108.068   283.835
 H      7   3   2   1.164332   108.749   167.950
 C      9   8   7   1.634505   110.607   187.250
 C     16   9   8   1.693264   118.755   174.619
 C     17  16   9   1.685605   114.723   267.284
 H     18  17  16   1.157852   109.153   210.400
 H     18  17  16   1.157099   109.275    90.594
 H     18  17  16   1.156874   109.767   330.332
 H     17  16   9   1.152799   107.842   147.156
 H     17  16   9   1.151627   108.434    28.548
 H     16   9   8   1.158662   108.321   296.004
 H     16   9   8   1.158908   108.288    53.181
 C     19  18  17  31.487217   143.606   292.631
 C     26  19  18   1.395667    45.102   294.201
 C     27  26  19   1.429777   114.102   166.032
 C     28  27  26   1.398333   113.693     0.000
 S     26  19  18   1.658039   148.306   320.483
 H     27  26  19   1.147021   123.326   323.138
 C     28  27  26   1.607320   114.972   180.683
 C     32  28  27   1.713154   108.014    47.277
 C     33  32  28   1.683317   125.591   183.940
 H     34  33  32   1.158701   106.894   265.818
 H     34  33  32   1.161611   106.246   150.874
 H     33  32  28   1.154882   107.226   306.057
 H     33  32  28   1.157377   104.748    61.245
 H     32  28  27   1.157573   110.602   165.622
 H     32  28  27   1.157180   110.937   288.227
 C     34  33  32   1.624585   118.166    29.350
 C     41  34  33   1.684459   115.830   267.456
 C     42  41  34   1.678752   114.795    96.912
 H     43  42  41   1.152332   110.464   302.636
 H     43  42  41   1.158450   108.907   182.531
 H     43  42  41   1.158267   108.961    63.288
 H     42  41  34   1.153206   108.116   217.945
 H     42  41  34   1.153824   108.326   336.175
 H     41  34  33   1.159129   108.974   146.556
 H     41  34  33   1.158723   109.115    28.744
 H      1   2   3   1.059995   127.260   180.000
 H      4   3   2   1.060001   127.206   179.999
 H     26  19  18   1.059996    83.122   125.358
 H     29  28  27   1.060004   127.206   180.000

---------------------------
INTERNAL COORDINATES (A.U.)
---------------------------
 C      0   0   0   0.000000     0.000     0.000
 C      1   0   0   2.637442     0.000     0.000
 C      2   1   0   2.701895   114.102     0.000
 C      3   2   1   2.642465   113.693     0.000
 S      1   2   3   3.133250   105.479     0.000
 H      2   1   3   2.159945   124.400   183.012
 C      3   2   1   3.042092   123.368   179.032
 C      7   3   2   3.219893   125.361    47.243
 C      8   7   3   3.214327   121.854   268.885
 H      9   8   7   2.179899   108.235   307.998
 H      9   8   7   2.178698   108.221    66.567
 H      8   7   3   2.182939   106.078   147.643
 H      8   7   3   2.178981   106.588    31.234
 H      7   3   2   2.214578   108.068   283.835
 H      7   3   2   2.200269   108.749   167.950
 C      9   8   7   3.088767   110.607   187.250
 C     16   9   8   3.199806   118.755   174.619
 C     17  16   9   3.185332   114.723   267.284
 H     18  17  16   2.188023   109.153   210.400
 H     18  17  16   2.186601   109.275    90.594
 H     18  17  16   2.186174   109.767   330.332
 H     17  16   9   2.178475   107.842   147.156
 H     17  16   9   2.176260   108.434    28.548
 H     16   9   8   2.189553   108.321   296.004
 H     16   9   8   2.190019   108.288    53.181
 C     19  18  17  59.502218   143.606   292.631
 C     26  19  18   2.637428    45.102   294.201
 C     27  26  19   2.701888   114.102   166.032
 C     28  27  26   2.642467   113.693     0.000
 S     26  19  18   3.133239   148.306   320.483
 H     27  26  19   2.167555   123.326   323.138
 C     28  27  26   3.037395   114.972   180.683
 C     32  28  27   3.237392   108.014    47.277
 C     33  32  28   3.181008   125.591   183.940
 H     34  33  32   2.189628   106.894   265.818
 H     34  33  32   2.195126   106.246   150.874
 H     33  32  28   2.182410   107.226   306.057
 H     33  32  28   2.187126   104.748    61.245
 H     32  28  27   2.187497   110.602   165.622
 H     32  28  27   2.186753   110.937   288.227
 C     34  33  32   3.070022   118.166    29.350
 C     41  34  33   3.183166   115.830   267.456
 C     42  41  34   3.172382   114.795    96.912
 H     43  42  41   2.177591   110.464   302.636
 H     43  42  41   2.189154   108.907   182.531
 H     43  42  41   2.188807   108.961    63.288
 H     42  41  34   2.179244   108.116   217.945
 H     42  41  34   2.180411   108.326   336.175
 H     41  34  33   2.190436   108.974   146.556
 H     41  34  33   2.189669   109.115    28.744
 H      1   2   3   2.003100   127.260   180.000
 H      4   3   2   2.003111   127.206   179.999
 H     26  19  18   2.003103    83.122   125.358
 H     29  28  27   2.003116   127.206   180.000

----------------------------
SLATER BASIS SET DIM= 120
----------------------------
  0 C     2 shells
 l=0 nsto= 1
    2       1.625000000000        1.000000000000
 l=1 nsto= 1
    2       1.625000000000        1.000000000000
  1 C     2 shells
 l=0 nsto= 1
    2       1.625000000000        1.000000000000
 l=1 nsto= 1
    2       1.625000000000        1.000000000000
  2 C     2 shells
 l=0 nsto= 1
    2       1.625000000000        1.000000000000
 l=1 nsto= 1
    2       1.625000000000        1.000000000000
  3 C     2 shells
 l=0 nsto= 1
    2       1.625000000000        1.000000000000
 l=1 nsto= 1
    2       1.625000000000        1.000000000000
  4 S     2 shells
 l=0 nsto= 1
    3       1.925000000000        1.000000000000
 l=1 nsto= 1
    3       1.925000000000        1.000000000000
  5 H     1 shells
 l=0 nsto= 1
    1       1.200000000000        1.000000000000
  6 C     2 shells
 l=0 nsto= 1
    2       1.625000000000        1.000000000000
 l=1 nsto= 1
    2       1.625000000000        1.000000000000
  7 C     2 shells
 l=0 nsto= 1
    2       1.625000000000        1.000000000000
 l=1 nsto= 1
    2       1.625000000000        1.000000000000
  8 C     2 shells
 l=0 nsto= 1
    2       1.625000000000        1.000000000000
 l=1 nsto= 1
    2       1.625000000000        1.000000000000
  9 H     1 shells
 l=0 nsto= 1
    1       1.200000000000        1.000000000000
 10 H     1 shells
 l=0 nsto= 1
    1       1.200000000000        1.000000000000
 11 H     1 shells
 l=0 nsto= 1
    1       1.200000000000        1.000000000000
 12 H     1 shells
 l=0 nsto= 1
    1       1.200000000000        1.000000000000
 13 H     1 shells
 l=0 nsto= 1
    1       1.200000000000        1.000000000000
 14 H     1 shells
 l=0 nsto= 1
    1       1.200000000000        1.000000000000
 15 C     2 shells
 l=0 nsto= 1
    2       1.625000000000        1.000000000000
 l=1 nsto= 1
    2       1.625000000000        1.000000000000
 16 C     2 shells
 l=0 nsto= 1
    2       1.625000000000        1.000000000000
 l=1 nsto= 1
    2       1.625000000000        1.000000000000
 17 C     2 shells
 l=0 nsto= 1
    2       1.625000000000        1.000000000000
 l=1 nsto= 1
    2       1.625000000000        1.000000000000
 18 H     1 shells
 l=0 nsto= 1
    1       1.200000000000        1.000000000000
 19 H     1 shells
 l=0 nsto= 1
    1       1.200000000000        1.000000000000
 20 H     1 shells
 l=0 nsto= 1
    1       1.200000000000        1.000000000000
 21 H     1 shells
 l=0 nsto= 1
    1       1.200000000000        1.000000000000
 22 H     1 shells
 l=0 nsto= 1
    1       1.200000000000        1.000000000000
 23 H     1 shells
 l=0 nsto= 1
    1       1.200000000000        1.000000000000
 24 H     1 shells
 l=0 nsto= 1
    1       1.200000000000        1.000000000000
 25 C     2 shells
 l=0 nsto= 1
    2       1.625000000000        1.000000000000
 l=1 nsto= 1
    2       1.625000000000        1.000000000000
 26 C     2 shells
 l=0 nsto= 1
    2       1.625000000000        1.000000000000
 l=1 nsto= 1
    2       1.625000000000        1.000000000000
 27 C     2 shells
 l=0 nsto= 1
    2       1.625000000000        1.000000000000
 l=1 nsto= 1
    2       1.625000000000        1.000000000000
 28 C     2 shells
 l=0 nsto= 1
    2       1.625000000000        1.000000000000
 l=1 nsto= 1
    2       1.625000000000        1.000000000000
 29 S     2 shells
 l=0 nsto= 1
    3       1.925000000000        1.000000000000
 l=1 nsto= 1
    3       1.925000000000        1.000000000000
 30 H     1 shells
 l=0 nsto= 1
    1       1.200000000000        1.000000000000
 31 C     2 shells
 l=0 nsto= 1
    2       1.625000000000        1.000000000000
 l=1 nsto= 1
    2       1.625000000000        1.000000000000
 32 C     2 shells
 l=0 nsto= 1
    2       1.625000000000        1.000000000000
 l=1 nsto= 1
    2       1.625000000000        1.000000000000
 33 C     2 shells
 l=0 nsto= 1
    2       1.625000000000        1.000000000000
 l=1 nsto= 1
    2       1.625000000000        1.000000000000
 34 H     1 shells
 l=0 nsto= 1
    1       1.200000000000        1.000000000000
 35 H     1 shells
 l=0 nsto= 1
    1       1.200000000000        1.000000000000
 36 H     1 shells
 l=0 nsto= 1
    1       1.200000000000        1.000000000000
 37 H     1 shells
 l=0 nsto= 1
    1       1.200000000000        1.000000000000
 38 H     1 shells
 l=0 nsto= 1
    1       1.200000000000        1.000000000000
 39 H     1 shells
 l=0 nsto= 1
    1       1.200000000000        1.000000000000
 40 C     2 shells
 l=0 nsto= 1
    2       1.625000000000        1.000000000000
 l=1 nsto= 1
    2       1.625000000000        1.000000000000
 41 C     2 shells
 l=0 nsto= 1
    2       1.625000000000        1.000000000000
 l=1 nsto= 1
    2       1.625000000000        1.000000000000
 42 C     2 shells
 l=0 nsto= 1
    2       1.625000000000        1.000000000000
 l=1 nsto= 1
    2       1.625000000000        1.000000000000
 43 H     1 shells
 l=0 nsto= 1
    1       1.200000000000        1.000000000000
 44 H     1 shells
 l=0 nsto= 1
    1       1.200000000000        1.000000000000
 45 H     1 shells
 l=0 nsto= 1
    1       1.200000000000        1.000000000000
 46 H     1 shells
 l=0 nsto= 1
    1       1.200000000000        1.000000000000
 47 H     1 shells
 l=0 nsto= 1
    1       1.200000000000        1.000000000000
 48 H     1 shells
 l=0 nsto= 1
    1       1.200000000000        1.000000000000
 49 H     1 shells
 l=0 nsto= 1
    1       1.200000000000        1.000000000000
 50 H     1 shells
 l=0 nsto= 1
    1       1.200000000000        1.000000000000
 51 H     1 shells
 l=0 nsto= 1
    1       1.200000000000        1.000000000000
 52 H     1 shells
 l=0 nsto= 1
    1       1.200000000000        1.000000000000
 53 H     1 shells
 l=0 nsto= 1
    1       1.200000000000        1.000000000000
------------------------------------------------------------------------------
                           ORCA NDO INTEGRAL CALCULATION
------------------------------------------------------------------------------

--------------
NDO PARAMETERS
--------------

Gamma integral treatment              ... Mataga-Nishimoto
Nuclear repulsuion treatment          ... Direct (ZA*ZB/RAB)
Interaction factors:
s-s (sigma) =    1.0000
s-p (sigma) =    1.0000
s-d (sigma) =    1.0000
p-p (sigma) =    1.2670  p-p(pi) =    0.5850
p-d (sigma) =    1.0000  p-d(pi) =    1.0000
d-d (sigma) =    1.0000  d-d(pi) =    1.0000 d-d (delta) =    1.0000

fGamma parameter for Mataga-Nishimoto gamma integrals:    1.2000

--------------------------
Parameters for Element H :
--------------------------
 One-electron parameters (in eV)
  U(s)  =   -13.060000 Beta(s) =    12.000000 Neff(s) =     1.000000
 One-center electron repulsion parameters (in eV)
  G(s,s)=    12.850000
--------------------------
Parameters for Element C :
--------------------------
 One-electron parameters (in eV)
  U(s)  =   -50.870766 Beta(s) =    17.000000 Neff(s) =     2.000000
  U(p)  =   -41.599980 Beta(p) =    17.000000 Neff(p) =     2.000000 
 One-center electron repulsion parameters (in eV)
  G(s,s)=    11.110000
  G(s,p)=    11.110000 G(p,p)  =    11.110000
 Slater-Condon parameters (in eV)
 F2(p,p)=     4.5098 G1(s,p)=    6.8977
--------------------------
Parameters for Element S :
--------------------------
 One-electron parameters (in eV)
  U(s)  =   -69.509597 Beta(s) =    15.000000 Neff(s) =     2.000000
  U(p)  =   -60.725746 Beta(p) =    15.000000 Neff(p) =     4.000000 
 One-center electron repulsion parameters (in eV)
  G(s,s)=    10.090000
  G(s,p)=    10.090000 G(p,p)  =    10.090000
 Slater-Condon parameters (in eV)
 F2(p,p)=     4.5377 G1(s,p)=    3.0756

 Number of atoms                    ....   54
 Number of basis functions          ....  120

 Overlap integrals                  .... done
 One electron matrix                .... done
 Nuclear repulsion                  .... done
 Integral list                      .... done
 Electron-electron repulsion        .... done
-------------------------------------------------------------------------------
                                 ORCA SCF
-------------------------------------------------------------------------------

------------
SCF SETTINGS
------------
Hamiltonian:
 ZDO-Hamiltonian        Method          .... INDO


General Settings:
 Integral files         IntName         .... /Users/mattyjones/GoogleDrive/Boise/Code/MorphCT/tests/output_EZ/donor_polymer/chromophores/input_orca/pair/00008-00018
 Hartree-Fock type      HFTyp           .... RHF
 Total Charge           Charge          ....    0
 Multiplicity           Mult            ....    1
 Number of Electrons    NEL             ....  124
 Basis Dimension        Dim             ....  120
 Nuclear Repulsion      ENuc            ....    652.4713778484 Eh

Convergence Acceleration:
 DIIS                   CNVDIIS         .... on
   Start iteration      DIISMaxIt       ....    12
   Startup error        DIISStart       ....  0.200000
   # of expansion vecs  DIISMaxEq       ....     5
   Bias factor          DIISBfac        ....   1.050
   Max. coefficient     DIISMaxC        ....  10.000
 Newton-Raphson         CNVNR           .... off
 SOSCF                  CNVSOSCF        .... on
   Start iteration      SOSCFMaxIt      ....   150
   Startup grad/error   SOSCFStart      ....  0.003300
 Level Shifting         CNVShift        .... on
   Level shift para.    LevelShift      ....    0.2500
   Turn off err/grad.   ShiftErr        ....    0.0010
 Zerner damping         CNVZerner       .... off
 Static damping         CNVDamp         .... on
   Fraction old density DampFac         ....    0.7000
   Max. Damping (<1)    DampMax         ....    0.9800
   Min. Damping (>=0)   DampMin         ....    0.0000
   Turn off err/grad.   DampErr         ....    0.1000
 Fernandez-Rico         CNVRico         .... off

SCF Procedure:
 Maximum # iterations   MaxIter         ....   125
 SCF integral mode      SCFMode         .... Conventional
 Integral Buffer length BufferLength    .... 1048576
 Integral index format  IndFormat       ....     0
 Integral value format  ValFormat       ....     0
 Integral Storage       Thresh          ....  1.000e-08 Eh

Convergence Tolerance:
 Convergence Check Mode ConvCheckMode   .... Total+1el-Energy
 Energy Change          TolE            ....  1.000e-06 Eh
 1-El. energy change                    ....  1.000e-03 Eh
 Orbital Gradient       TolG            ....  5.000e-05
 Orbital Rotation angle TolX            ....  5.000e-05
 DIIS Error             TolErr          ....  1.000e-06


Diagonalization of the overlap matrix:
Smallest eigenvalue                        ... 1.694e-01
Time for diagonalization                   ...    0.003 sec
Threshold for overlap eigenvalues          ... 1.000e-08
Number of eigenvalues below threshold      ... 0
Time for construction of square roots      ...    0.001 sec
Total time needed                          ...    0.004 sec

-------------------------------
INITIAL GUESS: EXTENDED HUECKEL
-------------------------------
EHT matrix was read from disk
EHT matrix was diagonalized
Initial density was built
                      ------------------
                      INITIAL GUESS DONE
                      ------------------

 InCore treatment chosen:
   Memory dedicated               ...    1024 MB
   Memory needed                  ...      0 MB
   Number of tiny    integrals    ...       0
   Number of small   integrals    ...       0
   Number of regular integrals    ...    7392

--------------
SCF ITERATIONS
--------------
ITER       Energy         Delta-E        Max-DP      RMS-DP      [F,P]     Damp
  0    -21.0950228199   0.000000000000 0.04173464  0.00144739  0.0966432 0.7000
  1    -21.1368420677  -0.041819247831 0.03902902  0.00136283  0.0689437 0.7000
                               ***Turning on DIIS***
  2    -21.1677915219  -0.030949454241 0.09796829  0.00349610  0.0449859 0.0000
  3    -21.2475418813  -0.079750359344 0.01558646  0.00071813  0.0199653 0.0000
  4    -21.2344618492   0.013080032032 0.01041266  0.00049540  0.0065625 0.0000
  5    -21.2511685252  -0.016706675929 0.00723514  0.00033573  0.0038038 0.0000
  6    -21.2538848005  -0.002716275281 0.00497579  0.00023931  0.0020443 0.0000
                      *** Initiating the SOSCF procedure ***
                           *** Shutting down DIIS ***
                      *** Re-Reading the Fockian *** 
                      *** Removing any level shift *** 
ITER      Energy       Delta-E        Grad      Rot      Max-DP    RMS-DP
  7    -21.24956724   0.0043175633  0.003048  0.003048  0.002780  0.000135
  8    -21.24724579   0.0023214491  0.000844  0.002356  0.001407  0.000064
  9    -21.24726100  -0.0000152109  0.000371  0.002311  0.001601  0.000068
 10    -21.24726663  -0.0000056336  0.000034  0.000076  0.000116  0.000004
                 **** Energy Check signals convergence ****
              ***Rediagonalizing the Fockian in SOSCF/NRSCF***

               *****************************************************
               *                     SUCCESS                       *
               *           SCF CONVERGED AFTER  11 CYCLES          *
               *****************************************************


----------------
TOTAL SCF ENERGY
----------------

Total Energy       :          -21.24726668 Eh            -578.16752 eV

Components:
Nuclear Repulsion  :          652.47137785 Eh           17754.64882 eV
Electronic Energy  :         -673.71864453 Eh          -18332.81634 eV

One Electron Energy:        -1256.97440947 Eh          -34204.01258 eV
Two Electron Energy:          583.25576494 Eh           15871.19624 eV


---------------
SCF CONVERGENCE
---------------

  Last Energy change         ...   -5.1764e-08  Tolerance :   1.0000e-06
  Last MAX-Density change    ...    5.8128e-05  Tolerance :   1.0000e-05
  Last RMS-Density change    ...    1.4200e-06  Tolerance :   1.0000e-06
  Last Orbital Gradient      ...    1.3260e-05  Tolerance :   5.0000e-05
  Last Orbital Rotation      ...    2.8302e-05  Tolerance :   5.0000e-05

             **** THE GBW FILE WAS UPDATED (/Users/mattyjones/GoogleDrive/Boise/Code/MorphCT/tests/output_EZ/donor_polymer/chromophores/input_orca/pair/00008-00018.gbw) ****
             **** DENSITY FILE WAS UPDATED (/Users/mattyjones/GoogleDrive/Boise/Code/MorphCT/tests/output_EZ/donor_polymer/chromophores/input_orca/pair/00008-00018.scfp.tmp) ****
             **** ENERGY FILE WAS UPDATED (/Users/mattyjones/GoogleDrive/Boise/Code/MorphCT/tests/output_EZ/donor_polymer/chromophores/input_orca/pair/00008-00018.en.tmp) ****
----------------
ORBITAL ENERGIES
----------------

  NO   OCC          E(Eh)            E(eV) 
   0   2.0000      -1.564626       -42.5756 
   1   2.0000      -1.556351       -42.3505 
   2   2.0000      -1.407206       -38.2920 
   3   2.0000      -1.396328       -37.9960 
   4   2.0000      -1.291197       -35.1353 
   5   2.0000      -1.284278       -34.9470 
   6   2.0000      -1.196171       -32.5495 
   7   2.0000      -1.188467       -32.3398 
   8   2.0000      -1.119804       -30.4714 
   9   2.0000      -1.109143       -30.1813 
  10   2.0000      -1.039199       -28.2780 
  11   2.0000      -1.032159       -28.0865 
  12   2.0000      -0.968451       -26.3529 
  13   2.0000      -0.949939       -25.8492 
  14   2.0000      -0.913452       -24.8563 
  15   2.0000      -0.891412       -24.2566 
  16   2.0000      -0.868585       -23.6354 
  17   2.0000      -0.851142       -23.1607 
  18   2.0000      -0.831580       -22.6285 
  19   2.0000      -0.831211       -22.6184 
  20   2.0000      -0.771418       -20.9914 
  21   2.0000      -0.769611       -20.9422 
  22   2.0000      -0.742050       -20.1922 
  23   2.0000      -0.735872       -20.0241 
  24   2.0000      -0.687869       -18.7179 
  25   2.0000      -0.687212       -18.7000 
  26   2.0000      -0.677142       -18.4260 
  27   2.0000      -0.676672       -18.4132 
  28   2.0000      -0.650397       -17.6982 
  29   2.0000      -0.648676       -17.6514 
  30   2.0000      -0.612925       -16.6785 
  31   2.0000      -0.608691       -16.5633 
  32   2.0000      -0.599420       -16.3110 
  33   2.0000      -0.588671       -16.0185 
  34   2.0000      -0.577055       -15.7025 
  35   2.0000      -0.576889       -15.6979 
  36   2.0000      -0.574331       -15.6284 
  37   2.0000      -0.565482       -15.3876 
  38   2.0000      -0.555162       -15.1067 
  39   2.0000      -0.553954       -15.0738 
  40   2.0000      -0.534749       -14.5513 
  41   2.0000      -0.526939       -14.3387 
  42   2.0000      -0.516692       -14.0599 
  43   2.0000      -0.515852       -14.0371 
  44   2.0000      -0.509189       -13.8557 
  45   2.0000      -0.508103       -13.8262 
  46   2.0000      -0.492002       -13.3880 
  47   2.0000      -0.490314       -13.3421 
  48   2.0000      -0.485698       -13.2165 
  49   2.0000      -0.482504       -13.1296 
  50   2.0000      -0.481570       -13.1042 
  51   2.0000      -0.477796       -13.0015 
  52   2.0000      -0.471023       -12.8172 
  53   2.0000      -0.469534       -12.7767 
  54   2.0000      -0.464630       -12.6432 
  55   2.0000      -0.459665       -12.5081 
  56   2.0000      -0.441084       -12.0025 
  57   2.0000      -0.435688       -11.8557 
  58   2.0000      -0.357073        -9.7164 
  59   2.0000      -0.351073        -9.5532 
  60   2.0000      -0.305070        -8.3014 
  61   2.0000      -0.305020        -8.3000 
  62   0.0000       0.007088         0.1929 
  63   0.0000       0.007465         0.2031 
  64   0.0000       0.065583         1.7846 
  65   0.0000       0.066580         1.8117 
  66   0.0000       0.075154         2.0450 
  67   0.0000       0.076363         2.0779 
  68   0.0000       0.087336         2.3765 
  69   0.0000       0.088655         2.4124 
  70   0.0000       0.104767         2.8508 
  71   0.0000       0.106866         2.9080 
  72   0.0000       0.107636         2.9289 
  73   0.0000       0.108008         2.9391 
  74   0.0000       0.124058         3.3758 
  75   0.0000       0.125447         3.4136 
  76   0.0000       0.140940         3.8352 
  77   0.0000       0.141551         3.8518 
  78   0.0000       0.155417         4.2291 
  79   0.0000       0.160183         4.3588 
  80   0.0000       0.165173         4.4946 
  81   0.0000       0.166237         4.5235 
  82   0.0000       0.172271         4.6877 
  83   0.0000       0.173126         4.7110 
  84   0.0000       0.201373         5.4796 
  85   0.0000       0.204748         5.5715 
  86   0.0000       0.232813         6.3352 
  87   0.0000       0.233292         6.3482 
  88   0.0000       0.233807         6.3622 
  89   0.0000       0.235652         6.4124 
  90   0.0000       0.236669         6.4401 
  91   0.0000       0.238296         6.4844 
  92   0.0000       0.239978         6.5301 
  93   0.0000       0.240127         6.5342 
  94   0.0000       0.241954         6.5839 
  95   0.0000       0.242288         6.5930 
  96   0.0000       0.243285         6.6201 
  97   0.0000       0.243559         6.6276 
  98   0.0000       0.243934         6.6378 
  99   0.0000       0.244478         6.6526 
 100   0.0000       0.247122         6.7245 
 101   0.0000       0.248580         6.7642 
 102   0.0000       0.257511         7.0072 
 103   0.0000       0.260064         7.0767 
 104   0.0000       0.266685         7.2569 
 105   0.0000       0.267024         7.2661 
 106   0.0000       0.283115         7.7039 
 107   0.0000       0.283432         7.7126 
 108   0.0000       0.298392         8.1196 
 109   0.0000       0.309869         8.4320 
 110   0.0000       0.309913         8.4332 
 111   0.0000       0.312211         8.4957 
 112   0.0000       0.337641         9.1877 
 113   0.0000       0.340540         9.2666 
 114   0.0000       0.352643         9.5959 
 115   0.0000       0.356598         9.7035 
 116   0.0000       0.412299        11.2192 
 117   0.0000       0.420358        11.4385 
 118   0.0000       0.425159        11.5692 
 119   0.0000       0.431725        11.7478 
-------
TIMINGS
-------

Total SCF time: 0 days 0 hours 0 min 0 sec 

Total time                  ....       0.126 sec
Sum of individual times     ....       0.102 sec  ( 81.2%)

Fock matrix formation       ....       0.046 sec  ( 37.0%)
Diagonalization             ....       0.024 sec  ( 19.1%)
Density matrix formation    ....       0.006 sec  (  4.5%)
Population analysis         ....       0.000 sec  (  0.0%)
Initial guess               ....       0.003 sec  (  2.3%)
Orbital Transformation      ....       0.000 sec  (  0.0%)
Orbital Orthonormalization  ....       0.000 sec  (  0.0%)
DIIS solution               ....       0.015 sec  ( 11.7%)
SOSCF solution              ....       0.008 sec  (  6.7%)

-------------------------   --------------------
FINAL SINGLE POINT ENERGY       -21.247266684295
-------------------------   --------------------


                            ***************************************
                            *     ORCA property calculations      *
                            ***************************************

                                    ---------------------
                                    Active property flags
                                    ---------------------
   (+) Dipole Moment


------------------------------------------------------------------------------
                       ORCA ELECTRIC PROPERTIES CALCULATION
------------------------------------------------------------------------------

Dipole Moment Calculation                       ... on
Quadrupole Moment Calculation                   ... off
Polarizability Calculation                      ... off
GBWName                                         ... /Users/mattyjones/GoogleDrive/Boise/Code/MorphCT/tests/output_EZ/donor_polymer/chromophores/input_orca/pair/00008-00018.gbw
Electron density file                           ... /Users/mattyjones/GoogleDrive/Boise/Code/MorphCT/tests/output_EZ/donor_polymer/chromophores/input_orca/pair/00008-00018.scfp.tmp

-------------
DIPOLE MOMENT
-------------
                                X             Y             Z
Electronic contribution:     34.66733      70.63928    -121.73165
Nuclear contribution   :    -18.48899     -38.04199      65.47602
                        -----------------------------------------
Total Dipole Moment    :     16.17834      32.59729     -56.25563
                        -----------------------------------------
Magnitude (a.u.)       :     67.00013
Magnitude (Debye)      :    170.30080


Timings for individual modules:

Sum of individual times         ...        0.243 sec (=   0.004 min)
STO integral calculation        ...        0.049 sec (=   0.001 min)  20.1 %
SCF iterations                  ...        0.194 sec (=   0.003 min)  79.9 %
                             ****ORCA TERMINATED NORMALLY****
TOTAL RUN TIME: 0 days 0 hours 0 minutes 0 seconds 555 msec

