
                                 *****************
                                 * O   R   C   A *
                                 *****************

           --- An Ab Initio, DFT and Semiempirical electronic structure package ---

                  #######################################################
                  #                        -***-                        #
                  #  Department of molecular theory and spectroscopy    #
                  #              Directorship: Frank Neese              #
                  # Max Planck Institute for Chemical Energy Conversion #
                  #                  D-45470 Muelheim/Ruhr              #
                  #                       Germany                       #
                  #                                                     #
                  #                  All rights reserved                #
                  #                        -***-                        #
                  #######################################################


                         Program Version 3.0.3 - RELEASE   -


 With contributions from (in alphabetic order):
   Ute Becker             : Parallelization
   Dmytro Bykov           : SCF Hessian
   Dmitry Ganyushin       : Spin-Orbit,Spin-Spin,Magnetic field MRCI
   Andreas Hansen         : Spin unrestricted coupled pair/coupled cluster methods
   Dimitrios Liakos       : Extrapolation schemes; parallel MDCI
   Robert Izsak           : Overlap fitted RIJCOSX, COSX-SCS-MP3
   Christian Kollmar      : KDIIS, OOCD, Brueckner-CCSD(T), CCSD density
   Simone Kossmann        : Meta GGA functionals, TD-DFT gradient, OOMP2, MP2 Hessian
   Taras Petrenko         : DFT Hessian,TD-DFT gradient, ASA and ECA modules, normal mode analysis, Resonance Raman, ABS, FL, XAS/XES, NRVS
   Christoph Reimann      : Effective Core Potentials
   Michael Roemelt        : Restricted open shell CIS
   Christoph Riplinger    : Improved optimizer, TS searches, QM/MM, DLPNO-CCSD
   Barbara Sandhoefer     : DKH picture change effects
   Igor Schapiro          : Molecular dynamics
   Kantharuban Sivalingam : CASSCF convergence, NEVPT2
   Boris Wezisla          : Elementary symmetry handling
   Frank Wennmohs         : Technical directorship


 We gratefully acknowledge several colleagues who have allowed us to
 interface, adapt or use parts of their codes:
   Stefan Grimme, W. Hujo, H. Kruse, T. Risthaus : VdW corrections, initial TS optimization,
                                                   DFT functionals, gCP
   Ed Valeev                                     : LibInt (2-el integral package), F12 methods
   Garnet Chan, S. Sharma, R. Olivares           : DMRG
   Ulf Ekstrom                                   : XCFun DFT Library
   Mihaly Kallay                                 : mrcc  (arbitrary order and MRCC methods)
   Andreas Klamt, Michael Diedenhofen            : otool_cosmo (COSMO solvation model)
   Frank Weinhold                                : gennbo (NPA and NBO analysis)
   Christopher J. Cramer and Donald G. Truhlar   : smd solvation model


 Your calculation uses the libint2 library for the computation of 2-el integrals
 For citations please refer to: http://libint.valeyev.net

 This ORCA versions uses:
   CBLAS   interface :  Fast vector & matrix operations
   LAPACKE interface :  Fast linear algebra routines
   SCALAPACK package :  Parallel linear algebra routines


leaving
================================================================================
                                        WARNINGS
                       Please study these warnings very carefully!
================================================================================
Now building the actual basis set

WARNING: Direct SCF is incompatible with Method<>HF and Method<>DFT
  ===> : conventional SCF is chosen

WARNING: The NDO methods need Guess=HUECKEL or Guess=HCORE or Guess=MOREAD
  ===> : Guess is set to Hueckel

WARNING: The NDO methods need %rel::SOCType==1
  ===> : %rel::SOCType is set to 1

WARNING: The NDO methods cannot have frozencore=1
  ===> : %method FrozenCore=0 end


INFO   : the flag for use of LIBINT has been found!

================================================================================
                                       INPUT FILE
================================================================================
NAME = /Users/mattyjones/GoogleDrive/Boise/Code/MorphCT/tests/output_EZ/donor_polymer/chromophores/input_orca/pair/00007-00017.inp
|  1> # ================================================================
|  2> # Orca input file made by Matty Jones
|  3> # ================================================================
|  4> ! ZINDO/S 
|  5> ! NOPOP
|  6> ! NOMOPRINT
|  7> * xyz 0   1
|  8>  C  15.84131  4.28478  5.47355
|  9>  C  17.03859  4.64964  4.85604
| 10>  C  18.21000  4.20821  5.54683
| 11>  C  17.93633  3.49117  6.71570
| 12>  S  16.28266  3.44176  6.83135
| 13>  H  17.30311  4.62805  3.69871
| 14>  C  19.66541  4.58205  4.93611
| 15>  C  20.03625  6.19590  4.43105
| 16>  C  19.67940  6.80790  2.86817
| 17>  H  20.11769  6.06072  2.10530
| 18>  H  18.52953  6.82328  2.76794
| 19>  H  19.48499  6.88539  5.17173
| 20>  H  21.17438  6.31770  4.56696
| 21>  H  19.85757  3.92594  4.00052
| 22>  H  20.48650  4.32805  5.72655
| 23>  C  20.26545  8.30440  2.55246
| 24>  C  19.69322  9.16716  1.19754
| 25>  C  20.43474  9.10763  -0.31640
| 26>  H  21.58231  9.06719  -0.18555
| 27>  H  20.14717  10.06141  -0.90980
| 28>  H  20.06702  8.17384  -0.89012
| 29>  H  18.59133  8.86604  1.05005
| 30>  H  19.76387  10.26667  1.51410
| 31>  H  20.06542  8.97694  3.47263
| 32>  H  21.41195  8.21886  2.40733
| 33>  C  -14.26584  -6.73199  -3.11883
| 34>  C  -15.34940  -7.22344  -3.84839
| 35>  C  -16.49839  -6.37266  -3.83192
| 36>  C  -16.32120  -5.20351  -3.08559
| 37>  S  -14.77402  -5.28283  -2.49369
| 38>  H  -15.77626  -8.30221  -3.53582
| 39>  C  -17.78724  -6.86901  -4.66615
| 40>  C  -19.37183  -6.53777  -4.23384
| 41>  C  -19.99617  -7.59494  -3.08259
| 42>  H  -19.70057  -8.67286  -3.37679
| 43>  H  -19.50622  -7.33888  -2.06665
| 44>  H  -19.43756  -5.46313  -3.83715
| 45>  H  -20.02110  -6.63181  -5.18561
| 46>  H  -17.74028  -8.03804  -4.75403
| 47>  H  -17.68120  -6.46027  -5.76087
| 48>  C  -21.61366  -7.47984  -2.96427
| 49>  C  -22.16490  -6.04689  -2.26580
| 50>  C  -22.50006  -4.87806  -3.43388
| 51>  H  -21.77636  -4.99435  -4.32879
| 52>  H  -22.37532  -3.82569  -2.96954
| 53>  H  -23.58881  -5.01678  -3.80095
| 54>  H  -23.12560  -6.26476  -1.67110
| 55>  H  -21.35195  -5.63798  -1.56150
| 56>  H  -22.08775  -7.57291  -4.01552
| 57>  H  -22.00490  -8.35133  -2.30884
| 58>  H  14.85733  4.50102  5.14398
| 59>  H  18.63876  3.06782  7.38725
| 60>  H  -13.31789  -7.18885  -2.99129
| 61>  H  -17.02783  -4.42875  -2.93060
| 62> *
| 63> 
| 64>                          ****END OF INPUT****
================================================================================

                       ****************************
                       * Single Point Calculation *
                       ****************************

---------------------------------
CARTESIAN COORDINATES (ANGSTROEM)
---------------------------------
  C     15.841310    4.284780    5.473550
  C     17.038590    4.649640    4.856040
  C     18.210000    4.208210    5.546830
  C     17.936330    3.491170    6.715700
  S     16.282660    3.441760    6.831350
  H     17.303110    4.628050    3.698710
  C     19.665410    4.582050    4.936110
  C     20.036250    6.195900    4.431050
  C     19.679400    6.807900    2.868170
  H     20.117690    6.060720    2.105300
  H     18.529530    6.823280    2.767940
  H     19.484990    6.885390    5.171730
  H     21.174380    6.317700    4.566960
  H     19.857570    3.925940    4.000520
  H     20.486500    4.328050    5.726550
  C     20.265450    8.304400    2.552460
  C     19.693220    9.167160    1.197540
  C     20.434740    9.107630   -0.316400
  H     21.582310    9.067190   -0.185550
  H     20.147170   10.061410   -0.909800
  H     20.067020    8.173840   -0.890120
  H     18.591330    8.866040    1.050050
  H     19.763870   10.266670    1.514100
  H     20.065420    8.976940    3.472630
  H     21.411950    8.218860    2.407330
  C    -14.265840   -6.731990   -3.118830
  C    -15.349400   -7.223440   -3.848390
  C    -16.498390   -6.372660   -3.831920
  C    -16.321200   -5.203510   -3.085590
  S    -14.774020   -5.282830   -2.493690
  H    -15.776260   -8.302210   -3.535820
  C    -17.787240   -6.869010   -4.666150
  C    -19.371830   -6.537770   -4.233840
  C    -19.996170   -7.594940   -3.082590
  H    -19.700570   -8.672860   -3.376790
  H    -19.506220   -7.338880   -2.066650
  H    -19.437560   -5.463130   -3.837150
  H    -20.021100   -6.631810   -5.185610
  H    -17.740280   -8.038040   -4.754030
  H    -17.681200   -6.460270   -5.760870
  C    -21.613660   -7.479840   -2.964270
  C    -22.164900   -6.046890   -2.265800
  C    -22.500060   -4.878060   -3.433880
  H    -21.776360   -4.994350   -4.328790
  H    -22.375320   -3.825690   -2.969540
  H    -23.588810   -5.016780   -3.800950
  H    -23.125600   -6.264760   -1.671100
  H    -21.351950   -5.637980   -1.561500
  H    -22.087750   -7.572910   -4.015520
  H    -22.004900   -8.351330   -2.308840
  H     14.857330    4.501020    5.143980
  H     18.638760    3.067820    7.387250
  H    -13.317890   -7.188850   -2.991290
  H    -17.027830   -4.428750   -2.930600

----------------------------
CARTESIAN COORDINATES (A.U.)
----------------------------
  NO LB      ZA    FRAG    MASS        X           Y           Z
   0 C     4.0000    0    12.011         29.935737502548061          8.097060744103100         10.343510480324667
   1 C     4.0000    0    12.011         32.198268808169296          8.786546221325608          9.176585695366954
   2 C     4.0000    0    12.011         34.411912898705992          7.952364414028751         10.481989611418417
   3 C     4.0000    0    12.011         33.894751547635764          6.597355186961856         12.690833797574950
   4 S     6.0000    0    32.060         30.769768131754208          6.503983818684807         12.909380624962942
   5 H     1.0000    0     1.008         32.698139165114149          8.745747034094249          6.989548948795873
   6 C     4.0000    0    12.011         37.162239211276322          8.658819631933870          9.327896066910030
   7 C     4.0000    0    12.011         37.863025250779678         11.708554153162684          8.373470985711762
   8 C     4.0000    0    12.011         37.188676479889885         12.865066547122490          5.420055805528917
   9 H     1.0000    0     1.008         38.016924547126223         11.453100974379208          3.978440429744412
  10 H     1.0000    0     1.008         35.015737090277852         12.894130535062198          5.230648555125989
  11 H     1.0000    0     1.008         36.821294822194247         13.011501425240047          9.773153338584555
  12 H     1.0000    0     1.008         40.013779255579472         11.938722796274293          8.630303664572999
  13 H     1.0000    0     1.008         37.525368985170630          7.418951418206799          7.559887193274645
  14 H     1.0000    0     1.008         38.713874442577719          8.178829193917874         10.821611192206744
  15 C     4.0000    0    12.011         38.296150480674434         15.693041706535642          4.823450367788638
  16 C     4.0000    0    12.011         37.214792495060671         17.323421825837542          2.263022634416056
  17 C     4.0000    0    12.011         38.616062217885961         17.210926429085209         -0.597909348772684
  18 H     1.0000    0     1.008         40.784655237389970         17.134505904229435         -0.350638684149088
  19 H     1.0000    0     1.008         38.072633673554222         19.013309421096622         -1.719272836641555
  20 H     1.0000    0     1.008         37.921172123920435         15.446319062490884         -1.682083026325984
  21 H     1.0000    0     1.008         35.132522165354182         16.754387492391174          1.984306926924010
  22 H     1.0000    0     1.008         37.348301646422208         19.401194607345296          2.861234339370167
  23 H     1.0000    0     1.008         37.918148562106161         16.963958120643042          6.562319664438957
  24 H     1.0000    0     1.008         40.462721493215149         15.531394533040018          4.549194413972646
  25 C     4.0000    0    12.011        -26.958530670339151        -12.721617436296526         -5.893734558257617
  26 C     4.0000    0    12.011        -29.006162320010858        -13.650323344812126         -7.272403156521206
  27 C     4.0000    0    12.011        -31.177438750625040        -12.042582144594602         -7.241279367095523
  28 C     4.0000    0    12.011        -30.842598176955534         -9.833208835120571         -5.830920061566075
  29 S     6.0000    0    32.060        -27.918851697075251         -9.983101912063205         -4.712391162898086
  30 H     1.0000    0     1.008        -29.812810817536487        -15.688903206302356         -6.681731458841440
  31 C     4.0000    0    12.011        -33.613012278329442        -12.980547711166418         -8.817745599796648
  32 C     4.0000    0    12.011        -36.607453412879721        -12.354594826566341         -8.000798094841151
  33 C     4.0000    0    12.011        -37.787285027332111        -14.352356603563871         -5.825250883164311
  34 H     1.0000    0     1.008        -37.228681982144991        -16.389330197840266         -6.381208311763944
  35 H     1.0000    0     1.008        -36.861413708017395        -13.868473329711994         -3.905402514668355
  36 H     1.0000    0     1.008        -36.731665111662366        -10.323819534009207         -7.251162634775930
  37 H     1.0000    0     1.008        -37.834395899850776        -12.532304672200295         -9.799382737323381
  38 H     1.0000    0     1.008        -33.524270739080499        -15.189694253504380         -8.983814732445648
  39 H     1.0000    0     1.008        -33.412625719088439        -12.208141051187445        -10.886466593122920
  40 C     4.0000    0    12.011        -40.843898151688400        -14.134849125549536         -5.601658486998748
  41 C     4.0000    0    12.011        -41.885590785751148        -11.426966061947079         -4.281741474238772
  42 C     4.0000    0    12.011        -42.518951396796197         -9.218197464835900         -6.489092776749508
  43 H     1.0000    0     1.008        -41.151356593677392         -9.437953716949602         -8.180227591256974
  44 H     1.0000    0     1.008        -42.283226958850861         -7.229506373281193         -5.611617343724514
  45 H     1.0000    0     1.008        -44.576390725102961         -9.480340274133457         -7.182754548727981
  46 H     1.0000    0     1.008        -43.701050682609292        -11.838680694744500         -3.157921342395804
  47 H     1.0000    0     1.008        -40.349337925179867        -10.654238148525337         -2.950807358118035
  48 H     1.0000    0     1.008        -41.739798414519129        -14.310725936833586         -7.588233085283465
  49 H     1.0000    0     1.008        -41.583234604323749        -15.781726554000569         -4.363075287042743
  50 H     1.0000    0     1.008         28.076284781292230          8.505695123302232          9.720713438368239
  51 H     1.0000    0     1.008         35.222151875886070          5.797339628166295         13.959879382809767
  52 H     1.0000    0     1.008        -25.167164781688498        -13.584957717839790         -5.652718887137301
  53 H     1.0000    0     1.008        -32.177935354968312         -8.369124615603743         -5.538031408069620

--------------------------------
INTERNAL COORDINATES (ANGSTROEM)
--------------------------------
 C      0   0   0   0.000000     0.000     0.000
 C      1   0   0   1.395679     0.000     0.000
 C      2   1   0   1.429774   114.102     0.000
 C      3   2   1   1.398320   113.693     0.000
 S      1   2   3   1.658039   105.480     0.000
 H      2   1   3   1.187371   128.142   138.175
 C      3   2   1   1.622021   118.821   180.569
 C      7   3   2   1.731219   121.125    47.939
 C      8   7   3   1.715949   123.617   273.832
 H      9   8   7   1.154273   106.985   308.062
 H      9   8   7   1.154333   106.917    64.998
 H      8   7   3   1.152341   105.532    35.464
 H      8   7   3   1.152669   105.998   151.542
 H      7   3   2   1.158764   108.802   286.444
 H      7   3   2   1.167690   109.022   169.046
 C      9   8   7   1.637877   115.279   186.479
 C     16   9   8   1.705172   119.695   193.922
 C     17  16   9   1.686834   123.214   267.895
 H     18  17  16   1.155714   109.640   322.486
 H     18  17  16   1.159533   108.739   202.855
 H     18  17  16   1.156000   109.518    83.401
 H     17  16   9   1.151776   106.889    32.579
 H     17  16   9   1.146352   104.193   149.244
 H     16   9   8   1.157167   108.415   315.882
 H     16   9   8   1.158811   108.102    73.042
 C      1   2   3  33.190943   138.623   220.422
 C     26   1   2   1.395666   163.027     8.367
 C     27  26   1   1.429782   114.101   238.837
 C     28  27  26   1.398326   113.693     0.000
 S     26   1   2   1.658045    83.702   244.431
 H     27  26   1   1.201522   117.128   116.716
 C     28  27  26   1.613517   116.930   179.439
 C     32  28  27   1.675571   124.139   148.090
 C     33  32  28   1.683088   113.773   276.851
 H     34  33  32   1.155787   108.470   315.549
 H     34  33  32   1.156612   107.736    73.126
 H     33  32  28   1.147403   109.179    39.238
 H     33  32  28   1.155968   107.617   157.635
 H     32  28  27   1.173269   108.256    24.929
 H     32  28  27   1.173339   107.640   270.899
 C     34  33  32   1.625891   111.984   194.199
 C     41  34  33   1.686734   114.544   289.721
 C     42  41  34   1.686092   111.531    92.978
 H     43  42  41   1.156775   109.993   327.310
 H     43  42  41   1.157002   109.333   206.989
 H     43  42  41   1.157307   108.883    87.102
 H     42  41  34   1.150687   109.027   213.225
 H     42  41  34   1.150710   108.933   333.185
 H     41  34  33   1.156957   109.623    51.418
 H     41  34  33   1.158513   108.898   169.824
 H      1   2   3   1.059997   127.260   180.000
 H      4   3   2   1.060006   127.206   180.000
 H     26   1   2   1.059998    45.630    80.680
 H     29  28  27   1.060000   127.206   180.000

---------------------------
INTERNAL COORDINATES (A.U.)
---------------------------
 C      0   0   0   0.000000     0.000     0.000
 C      1   0   0   2.637452     0.000     0.000
 C      2   1   0   2.701881   114.102     0.000
 C      3   2   1   2.642442   113.693     0.000
 S      1   2   3   3.133240   105.480     0.000
 H      2   1   3   2.243806   128.142   138.175
 C      3   2   1   3.065176   118.821   180.569
 C      7   3   2   3.271530   121.125    47.939
 C      8   7   3   3.242673   123.617   273.832
 H      9   8   7   2.181260   106.985   308.062
 H      9   8   7   2.181372   106.917    64.998
 H      8   7   3   2.177610   105.532    35.464
 H      8   7   3   2.178229   105.998   151.542
 H      7   3   2   2.189747   108.802   286.444
 H      7   3   2   2.206615   109.022   169.046
 C      9   8   7   3.095138   115.279   186.479
 C     16   9   8   3.222307   119.695   193.922
 C     17  16   9   3.187655   123.214   267.895
 H     18  17  16   2.183982   109.640   322.486
 H     18  17  16   2.191199   108.739   202.855
 H     18  17  16   2.184524   109.518    83.401
 H     17  16   9   2.176541   106.889    32.579
 H     17  16   9   2.166292   104.193   149.244
 H     16   9   8   2.186728   108.415   315.882
 H     16   9   8   2.189835   108.102    73.042
 C      1   2   3  62.721792   138.623   220.422
 C     26   1   2   2.637426   163.027     8.367
 C     27  26   1   2.701896   114.101   238.837
 C     28  27  26   2.642454   113.693     0.000
 S     26   1   2   3.133250    83.702   244.431
 H     27  26   1   2.270547   117.128   116.716
 C     28  27  26   3.049105   116.930   179.439
 C     32  28  27   3.166370   124.139   148.090
 C     33  32  28   3.180575   113.773   276.851
 H     34  33  32   2.184122   108.470   315.549
 H     34  33  32   2.185680   107.736    73.126
 H     33  32  28   2.168278   109.179    39.238
 H     33  32  28   2.184462   107.617   157.635
 H     32  28  27   2.217156   108.256    24.929
 H     32  28  27   2.217290   107.640   270.899
 C     34  33  32   3.072489   111.984   194.199
 C     41  34  33   3.187465   114.544   289.721
 C     42  41  34   3.186252   111.531    92.978
 H     43  42  41   2.185988   109.993   327.310
 H     43  42  41   2.186417   109.333   206.989
 H     43  42  41   2.186994   108.883    87.102
 H     42  41  34   2.174483   109.027   213.225
 H     42  41  34   2.174527   108.933   333.185
 H     41  34  33   2.186332   109.623    51.418
 H     41  34  33   2.189272   108.898   169.824
 H      1   2   3   2.003103   127.260   180.000
 H      4   3   2   2.003121   127.206   180.000
 H     26   1   2   2.003107    45.630    80.680
 H     29  28  27   2.003111   127.206   180.000

----------------------------
SLATER BASIS SET DIM= 120
----------------------------
  0 C     2 shells
 l=0 nsto= 1
    2       1.625000000000        1.000000000000
 l=1 nsto= 1
    2       1.625000000000        1.000000000000
  1 C     2 shells
 l=0 nsto= 1
    2       1.625000000000        1.000000000000
 l=1 nsto= 1
    2       1.625000000000        1.000000000000
  2 C     2 shells
 l=0 nsto= 1
    2       1.625000000000        1.000000000000
 l=1 nsto= 1
    2       1.625000000000        1.000000000000
  3 C     2 shells
 l=0 nsto= 1
    2       1.625000000000        1.000000000000
 l=1 nsto= 1
    2       1.625000000000        1.000000000000
  4 S     2 shells
 l=0 nsto= 1
    3       1.925000000000        1.000000000000
 l=1 nsto= 1
    3       1.925000000000        1.000000000000
  5 H     1 shells
 l=0 nsto= 1
    1       1.200000000000        1.000000000000
  6 C     2 shells
 l=0 nsto= 1
    2       1.625000000000        1.000000000000
 l=1 nsto= 1
    2       1.625000000000        1.000000000000
  7 C     2 shells
 l=0 nsto= 1
    2       1.625000000000        1.000000000000
 l=1 nsto= 1
    2       1.625000000000        1.000000000000
  8 C     2 shells
 l=0 nsto= 1
    2       1.625000000000        1.000000000000
 l=1 nsto= 1
    2       1.625000000000        1.000000000000
  9 H     1 shells
 l=0 nsto= 1
    1       1.200000000000        1.000000000000
 10 H     1 shells
 l=0 nsto= 1
    1       1.200000000000        1.000000000000
 11 H     1 shells
 l=0 nsto= 1
    1       1.200000000000        1.000000000000
 12 H     1 shells
 l=0 nsto= 1
    1       1.200000000000        1.000000000000
 13 H     1 shells
 l=0 nsto= 1
    1       1.200000000000        1.000000000000
 14 H     1 shells
 l=0 nsto= 1
    1       1.200000000000        1.000000000000
 15 C     2 shells
 l=0 nsto= 1
    2       1.625000000000        1.000000000000
 l=1 nsto= 1
    2       1.625000000000        1.000000000000
 16 C     2 shells
 l=0 nsto= 1
    2       1.625000000000        1.000000000000
 l=1 nsto= 1
    2       1.625000000000        1.000000000000
 17 C     2 shells
 l=0 nsto= 1
    2       1.625000000000        1.000000000000
 l=1 nsto= 1
    2       1.625000000000        1.000000000000
 18 H     1 shells
 l=0 nsto= 1
    1       1.200000000000        1.000000000000
 19 H     1 shells
 l=0 nsto= 1
    1       1.200000000000        1.000000000000
 20 H     1 shells
 l=0 nsto= 1
    1       1.200000000000        1.000000000000
 21 H     1 shells
 l=0 nsto= 1
    1       1.200000000000        1.000000000000
 22 H     1 shells
 l=0 nsto= 1
    1       1.200000000000        1.000000000000
 23 H     1 shells
 l=0 nsto= 1
    1       1.200000000000        1.000000000000
 24 H     1 shells
 l=0 nsto= 1
    1       1.200000000000        1.000000000000
 25 C     2 shells
 l=0 nsto= 1
    2       1.625000000000        1.000000000000
 l=1 nsto= 1
    2       1.625000000000        1.000000000000
 26 C     2 shells
 l=0 nsto= 1
    2       1.625000000000        1.000000000000
 l=1 nsto= 1
    2       1.625000000000        1.000000000000
 27 C     2 shells
 l=0 nsto= 1
    2       1.625000000000        1.000000000000
 l=1 nsto= 1
    2       1.625000000000        1.000000000000
 28 C     2 shells
 l=0 nsto= 1
    2       1.625000000000        1.000000000000
 l=1 nsto= 1
    2       1.625000000000        1.000000000000
 29 S     2 shells
 l=0 nsto= 1
    3       1.925000000000        1.000000000000
 l=1 nsto= 1
    3       1.925000000000        1.000000000000
 30 H     1 shells
 l=0 nsto= 1
    1       1.200000000000        1.000000000000
 31 C     2 shells
 l=0 nsto= 1
    2       1.625000000000        1.000000000000
 l=1 nsto= 1
    2       1.625000000000        1.000000000000
 32 C     2 shells
 l=0 nsto= 1
    2       1.625000000000        1.000000000000
 l=1 nsto= 1
    2       1.625000000000        1.000000000000
 33 C     2 shells
 l=0 nsto= 1
    2       1.625000000000        1.000000000000
 l=1 nsto= 1
    2       1.625000000000        1.000000000000
 34 H     1 shells
 l=0 nsto= 1
    1       1.200000000000        1.000000000000
 35 H     1 shells
 l=0 nsto= 1
    1       1.200000000000        1.000000000000
 36 H     1 shells
 l=0 nsto= 1
    1       1.200000000000        1.000000000000
 37 H     1 shells
 l=0 nsto= 1
    1       1.200000000000        1.000000000000
 38 H     1 shells
 l=0 nsto= 1
    1       1.200000000000        1.000000000000
 39 H     1 shells
 l=0 nsto= 1
    1       1.200000000000        1.000000000000
 40 C     2 shells
 l=0 nsto= 1
    2       1.625000000000        1.000000000000
 l=1 nsto= 1
    2       1.625000000000        1.000000000000
 41 C     2 shells
 l=0 nsto= 1
    2       1.625000000000        1.000000000000
 l=1 nsto= 1
    2       1.625000000000        1.000000000000
 42 C     2 shells
 l=0 nsto= 1
    2       1.625000000000        1.000000000000
 l=1 nsto= 1
    2       1.625000000000        1.000000000000
 43 H     1 shells
 l=0 nsto= 1
    1       1.200000000000        1.000000000000
 44 H     1 shells
 l=0 nsto= 1
    1       1.200000000000        1.000000000000
 45 H     1 shells
 l=0 nsto= 1
    1       1.200000000000        1.000000000000
 46 H     1 shells
 l=0 nsto= 1
    1       1.200000000000        1.000000000000
 47 H     1 shells
 l=0 nsto= 1
    1       1.200000000000        1.000000000000
 48 H     1 shells
 l=0 nsto= 1
    1       1.200000000000        1.000000000000
 49 H     1 shells
 l=0 nsto= 1
    1       1.200000000000        1.000000000000
 50 H     1 shells
 l=0 nsto= 1
    1       1.200000000000        1.000000000000
 51 H     1 shells
 l=0 nsto= 1
    1       1.200000000000        1.000000000000
 52 H     1 shells
 l=0 nsto= 1
    1       1.200000000000        1.000000000000
 53 H     1 shells
 l=0 nsto= 1
    1       1.200000000000        1.000000000000
------------------------------------------------------------------------------
                           ORCA NDO INTEGRAL CALCULATION
------------------------------------------------------------------------------

--------------
NDO PARAMETERS
--------------

Gamma integral treatment              ... Mataga-Nishimoto
Nuclear repulsuion treatment          ... Direct (ZA*ZB/RAB)
Interaction factors:
s-s (sigma) =    1.0000
s-p (sigma) =    1.0000
s-d (sigma) =    1.0000
p-p (sigma) =    1.2670  p-p(pi) =    0.5850
p-d (sigma) =    1.0000  p-d(pi) =    1.0000
d-d (sigma) =    1.0000  d-d(pi) =    1.0000 d-d (delta) =    1.0000

fGamma parameter for Mataga-Nishimoto gamma integrals:    1.2000

--------------------------
Parameters for Element H :
--------------------------
 One-electron parameters (in eV)
  U(s)  =   -13.060000 Beta(s) =    12.000000 Neff(s) =     1.000000
 One-center electron repulsion parameters (in eV)
  G(s,s)=    12.850000
--------------------------
Parameters for Element C :
--------------------------
 One-electron parameters (in eV)
  U(s)  =   -50.870766 Beta(s) =    17.000000 Neff(s) =     2.000000
  U(p)  =   -41.599980 Beta(p) =    17.000000 Neff(p) =     2.000000 
 One-center electron repulsion parameters (in eV)
  G(s,s)=    11.110000
  G(s,p)=    11.110000 G(p,p)  =    11.110000
 Slater-Condon parameters (in eV)
 F2(p,p)=     4.5098 G1(s,p)=    6.8977
--------------------------
Parameters for Element S :
--------------------------
 One-electron parameters (in eV)
  U(s)  =   -69.509597 Beta(s) =    15.000000 Neff(s) =     2.000000
  U(p)  =   -60.725746 Beta(p) =    15.000000 Neff(p) =     4.000000 
 One-center electron repulsion parameters (in eV)
  G(s,s)=    10.090000
  G(s,p)=    10.090000 G(p,p)  =    10.090000
 Slater-Condon parameters (in eV)
 F2(p,p)=     4.5377 G1(s,p)=    3.0756

 Number of atoms                    ....   54
 Number of basis functions          ....  120

 Overlap integrals                  .... done
 One electron matrix                .... done
 Nuclear repulsion                  .... done
 Integral list                      .... done
 Electron-electron repulsion        .... done
-------------------------------------------------------------------------------
                                 ORCA SCF
-------------------------------------------------------------------------------

------------
SCF SETTINGS
------------
Hamiltonian:
 ZDO-Hamiltonian        Method          .... INDO


General Settings:
 Integral files         IntName         .... /Users/mattyjones/GoogleDrive/Boise/Code/MorphCT/tests/output_EZ/donor_polymer/chromophores/input_orca/pair/00007-00017
 Hartree-Fock type      HFTyp           .... RHF
 Total Charge           Charge          ....    0
 Multiplicity           Mult            ....    1
 Number of Electrons    NEL             ....  124
 Basis Dimension        Dim             ....  120
 Nuclear Repulsion      ENuc            ....    640.0336450551 Eh

Convergence Acceleration:
 DIIS                   CNVDIIS         .... on
   Start iteration      DIISMaxIt       ....    12
   Startup error        DIISStart       ....  0.200000
   # of expansion vecs  DIISMaxEq       ....     5
   Bias factor          DIISBfac        ....   1.050
   Max. coefficient     DIISMaxC        ....  10.000
 Newton-Raphson         CNVNR           .... off
 SOSCF                  CNVSOSCF        .... on
   Start iteration      SOSCFMaxIt      ....   150
   Startup grad/error   SOSCFStart      ....  0.003300
 Level Shifting         CNVShift        .... on
   Level shift para.    LevelShift      ....    0.2500
   Turn off err/grad.   ShiftErr        ....    0.0010
 Zerner damping         CNVZerner       .... off
 Static damping         CNVDamp         .... on
   Fraction old density DampFac         ....    0.7000
   Max. Damping (<1)    DampMax         ....    0.9800
   Min. Damping (>=0)   DampMin         ....    0.0000
   Turn off err/grad.   DampErr         ....    0.1000
 Fernandez-Rico         CNVRico         .... off

SCF Procedure:
 Maximum # iterations   MaxIter         ....   125
 SCF integral mode      SCFMode         .... Conventional
 Integral Buffer length BufferLength    .... 1048576
 Integral index format  IndFormat       ....     0
 Integral value format  ValFormat       ....     0
 Integral Storage       Thresh          ....  1.000e-08 Eh

Convergence Tolerance:
 Convergence Check Mode ConvCheckMode   .... Total+1el-Energy
 Energy Change          TolE            ....  1.000e-06 Eh
 1-El. energy change                    ....  1.000e-03 Eh
 Orbital Gradient       TolG            ....  5.000e-05
 Orbital Rotation angle TolX            ....  5.000e-05
 DIIS Error             TolErr          ....  1.000e-06


Diagonalization of the overlap matrix:
Smallest eigenvalue                        ... 1.676e-01
Time for diagonalization                   ...    0.003 sec
Threshold for overlap eigenvalues          ... 1.000e-08
Number of eigenvalues below threshold      ... 0
Time for construction of square roots      ...    0.000 sec
Total time needed                          ...    0.004 sec

-------------------------------
INITIAL GUESS: EXTENDED HUECKEL
-------------------------------
EHT matrix was read from disk
EHT matrix was diagonalized
Initial density was built
                      ------------------
                      INITIAL GUESS DONE
                      ------------------

 InCore treatment chosen:
   Memory dedicated               ...    1024 MB
   Memory needed                  ...      0 MB
   Number of tiny    integrals    ...       0
   Number of small   integrals    ...       0
   Number of regular integrals    ...    7392

--------------
SCF ITERATIONS
--------------
ITER       Energy         Delta-E        Max-DP      RMS-DP      [F,P]     Damp
  0    -21.3178839495   0.000000000000 0.04785161  0.00154950  0.1225992 0.7000
  1    -21.3646933853  -0.046809435775 0.04600699  0.00146782  0.0838683 0.7000
                               ***Turning on DIIS***
  2    -21.3991629946  -0.034469609293 0.11856688  0.00377290  0.0508682 0.0000
  3    -21.4895899829  -0.090426988290 0.02207079  0.00078432  0.0238407 0.0000
  4    -21.4706482985   0.018941684386 0.01275824  0.00056142  0.0087278 0.0000
  5    -21.4902727362  -0.019624437681 0.00944931  0.00038493  0.0050900 0.0000
  6    -21.4921165061  -0.001843769925 0.00747708  0.00027886  0.0027511 0.0000
  7    -21.4891623331   0.002954173048 0.00467446  0.00016597  0.0016361 0.0000
                      *** Initiating the SOSCF procedure ***
                           *** Shutting down DIIS ***
                      *** Re-Reading the Fockian *** 
                      *** Removing any level shift *** 
ITER      Energy       Delta-E        Grad      Rot      Max-DP    RMS-DP
  8    -21.48825713   0.0009052062  0.001993  0.001993  0.004501  0.000152
  9    -21.48710575   0.0011513784  0.000149  0.000415  0.000520  0.000015
                 **** Energy Check signals convergence ****
              ***Rediagonalizing the Fockian in SOSCF/NRSCF***

               *****************************************************
               *                     SUCCESS                       *
               *           SCF CONVERGED AFTER  10 CYCLES          *
               *****************************************************


----------------
TOTAL SCF ENERGY
----------------

Total Energy       :          -21.48710656 Eh            -584.69389 eV

Components:
Nuclear Repulsion  :          640.03364506 Eh           17416.20090 eV
Electronic Energy  :         -661.52075162 Eh          -18000.89480 eV

One Electron Energy:        -1232.76632376 Eh          -33545.27708 eV
Two Electron Energy:          571.24557214 Eh           15544.38228 eV


---------------
SCF CONVERGENCE
---------------

  Last Energy change         ...   -8.1482e-07  Tolerance :   1.0000e-06
  Last MAX-Density change    ...    5.4857e-04  Tolerance :   1.0000e-05
  Last RMS-Density change    ...    1.5956e-05  Tolerance :   1.0000e-06
  Last Orbital Gradient      ...    1.0160e-04  Tolerance :   5.0000e-05
  Last Orbital Rotation      ...    6.0063e-04  Tolerance :   5.0000e-05

             **** THE GBW FILE WAS UPDATED (/Users/mattyjones/GoogleDrive/Boise/Code/MorphCT/tests/output_EZ/donor_polymer/chromophores/input_orca/pair/00007-00017.gbw) ****
             **** DENSITY FILE WAS UPDATED (/Users/mattyjones/GoogleDrive/Boise/Code/MorphCT/tests/output_EZ/donor_polymer/chromophores/input_orca/pair/00007-00017.scfp.tmp) ****
             **** ENERGY FILE WAS UPDATED (/Users/mattyjones/GoogleDrive/Boise/Code/MorphCT/tests/output_EZ/donor_polymer/chromophores/input_orca/pair/00007-00017.en.tmp) ****
----------------
ORBITAL ENERGIES
----------------

  NO   OCC          E(Eh)            E(eV) 
   0   2.0000      -1.564813       -42.5807 
   1   2.0000      -1.558883       -42.4194 
   2   2.0000      -1.419215       -38.6188 
   3   2.0000      -1.381506       -37.5927 
   4   2.0000      -1.285884       -34.9907 
   5   2.0000      -1.284912       -34.9642 
   6   2.0000      -1.186188       -32.2778 
   7   2.0000      -1.172071       -31.8937 
   8   2.0000      -1.108078       -30.1523 
   9   2.0000      -1.106005       -30.0959 
  10   2.0000      -1.061745       -28.8915 
  11   2.0000      -1.039536       -28.2872 
  12   2.0000      -0.972037       -26.4505 
  13   2.0000      -0.956735       -26.0341 
  14   2.0000      -0.891985       -24.2721 
  15   2.0000      -0.881608       -23.9898 
  16   2.0000      -0.862859       -23.4796 
  17   2.0000      -0.858572       -23.3629 
  18   2.0000      -0.832980       -22.6665 
  19   2.0000      -0.819504       -22.2998 
  20   2.0000      -0.779862       -21.2211 
  21   2.0000      -0.770972       -20.9792 
  22   2.0000      -0.735786       -20.0218 
  23   2.0000      -0.725688       -19.7470 
  24   2.0000      -0.690731       -18.7958 
  25   2.0000      -0.686642       -18.6845 
  26   2.0000      -0.671353       -18.2685 
  27   2.0000      -0.669043       -18.2056 
  28   2.0000      -0.648278       -17.6405 
  29   2.0000      -0.648133       -17.6366 
  30   2.0000      -0.614024       -16.7084 
  31   2.0000      -0.609971       -16.5982 
  32   2.0000      -0.586748       -15.9662 
  33   2.0000      -0.585035       -15.9196 
  34   2.0000      -0.583791       -15.8858 
  35   2.0000      -0.578536       -15.7428 
  36   2.0000      -0.575141       -15.6504 
  37   2.0000      -0.572114       -15.5680 
  38   2.0000      -0.555114       -15.1054 
  39   2.0000      -0.552883       -15.0447 
  40   2.0000      -0.537511       -14.6264 
  41   2.0000      -0.532885       -14.5005 
  42   2.0000      -0.525951       -14.3119 
  43   2.0000      -0.520214       -14.1558 
  44   2.0000      -0.512472       -13.9451 
  45   2.0000      -0.497513       -13.5380 
  46   2.0000      -0.495188       -13.4748 
  47   2.0000      -0.493244       -13.4219 
  48   2.0000      -0.482123       -13.1192 
  49   2.0000      -0.477834       -13.0025 
  50   2.0000      -0.475404       -12.9364 
  51   2.0000      -0.471325       -12.8254 
  52   2.0000      -0.467450       -12.7199 
  53   2.0000      -0.464922       -12.6512 
  54   2.0000      -0.462622       -12.5886 
  55   2.0000      -0.461004       -12.5446 
  56   2.0000      -0.438481       -11.9317 
  57   2.0000      -0.436849       -11.8873 
  58   2.0000      -0.349590        -9.5128 
  59   2.0000      -0.340564        -9.2672 
  60   2.0000      -0.305264        -8.3066 
  61   2.0000      -0.304189        -8.2774 
  62   0.0000      -0.002858        -0.0778 
  63   0.0000       0.002777         0.0756 
  64   0.0000       0.054438         1.4813 
  65   0.0000       0.058494         1.5917 
  66   0.0000       0.065266         1.7760 
  67   0.0000       0.079416         2.1610 
  68   0.0000       0.087204         2.3729 
  69   0.0000       0.093193         2.5359 
  70   0.0000       0.103734         2.8227 
  71   0.0000       0.105457         2.8696 
  72   0.0000       0.108227         2.9450 
  73   0.0000       0.111114         3.0236 
  74   0.0000       0.126789         3.4501 
  75   0.0000       0.127010         3.4561 
  76   0.0000       0.142208         3.8697 
  77   0.0000       0.143338         3.9004 
  78   0.0000       0.158082         4.3016 
  79   0.0000       0.159425         4.3382 
  80   0.0000       0.167851         4.5675 
  81   0.0000       0.170871         4.6496 
  82   0.0000       0.176264         4.7964 
  83   0.0000       0.186545         5.0762 
  84   0.0000       0.199165         5.4195 
  85   0.0000       0.202484         5.5099 
  86   0.0000       0.232497         6.3266 
  87   0.0000       0.234984         6.3943 
  88   0.0000       0.236242         6.4285 
  89   0.0000       0.236641         6.4393 
  90   0.0000       0.236878         6.4458 
  91   0.0000       0.239029         6.5043 
  92   0.0000       0.239284         6.5112 
  93   0.0000       0.240073         6.5327 
  94   0.0000       0.241198         6.5633 
  95   0.0000       0.241707         6.5772 
  96   0.0000       0.242598         6.6014 
  97   0.0000       0.243585         6.6283 
  98   0.0000       0.244303         6.6478 
  99   0.0000       0.244652         6.6573 
 100   0.0000       0.247218         6.7272 
 101   0.0000       0.249499         6.7892 
 102   0.0000       0.262527         7.1437 
 103   0.0000       0.263289         7.1645 
 104   0.0000       0.265418         7.2224 
 105   0.0000       0.265573         7.2266 
 106   0.0000       0.277681         7.5561 
 107   0.0000       0.281911         7.6712 
 108   0.0000       0.301931         8.2159 
 109   0.0000       0.303774         8.2661 
 110   0.0000       0.308782         8.4024 
 111   0.0000       0.308871         8.4048 
 112   0.0000       0.327550         8.9131 
 113   0.0000       0.335569         9.1313 
 114   0.0000       0.344717         9.3802 
 115   0.0000       0.354727         9.6526 
 116   0.0000       0.415444        11.3048 
 117   0.0000       0.417735        11.3671 
 118   0.0000       0.428397        11.6573 
 119   0.0000       0.431945        11.7538 
-------
TIMINGS
-------

Total SCF time: 0 days 0 hours 0 min 0 sec 

Total time                  ....       0.122 sec
Sum of individual times     ....       0.098 sec  ( 80.9%)

Fock matrix formation       ....       0.047 sec  ( 38.7%)
Diagonalization             ....       0.026 sec  ( 21.7%)
Density matrix formation    ....       0.005 sec  (  3.8%)
Population analysis         ....       0.000 sec  (  0.0%)
Initial guess               ....       0.003 sec  (  2.3%)
Orbital Transformation      ....       0.000 sec  (  0.0%)
Orbital Orthonormalization  ....       0.000 sec  (  0.0%)
DIIS solution               ....       0.015 sec  ( 12.1%)
SOSCF solution              ....       0.003 sec  (  2.4%)

-------------------------   --------------------
FINAL SINGLE POINT ENERGY       -21.487106563242
-------------------------   --------------------


                            ***************************************
                            *     ORCA property calculations      *
                            ***************************************

                                    ---------------------
                                    Active property flags
                                    ---------------------
   (+) Dipole Moment


------------------------------------------------------------------------------
                       ORCA ELECTRIC PROPERTIES CALCULATION
------------------------------------------------------------------------------

Dipole Moment Calculation                       ... on
Quadrupole Moment Calculation                   ... off
Polarizability Calculation                      ... off
GBWName                                         ... /Users/mattyjones/GoogleDrive/Boise/Code/MorphCT/tests/output_EZ/donor_polymer/chromophores/input_orca/pair/00007-00017.gbw
Electron density file                           ... /Users/mattyjones/GoogleDrive/Boise/Code/MorphCT/tests/output_EZ/donor_polymer/chromophores/input_orca/pair/00007-00017.scfp.tmp

-------------
DIPOLE MOMENT
-------------
                                X             Y             Z
Electronic contribution:     47.60034     -55.43691     113.04497
Nuclear contribution   :    -24.19494      30.64343     -60.20846
                        -----------------------------------------
Total Dipole Moment    :     23.40540     -24.79348      52.83651
                        -----------------------------------------
Magnitude (a.u.)       :     62.88263
Magnitude (Debye)      :    159.83495


Timings for individual modules:

Sum of individual times         ...        0.219 sec (=   0.004 min)
STO integral calculation        ...        0.052 sec (=   0.001 min)  23.6 %
SCF iterations                  ...        0.167 sec (=   0.003 min)  76.4 %
                             ****ORCA TERMINATED NORMALLY****
TOTAL RUN TIME: 0 days 0 hours 0 minutes 0 seconds 544 msec

