
                                 *****************
                                 * O   R   C   A *
                                 *****************

           --- An Ab Initio, DFT and Semiempirical electronic structure package ---

                  #######################################################
                  #                        -***-                        #
                  #  Department of molecular theory and spectroscopy    #
                  #              Directorship: Frank Neese              #
                  # Max Planck Institute for Chemical Energy Conversion #
                  #                  D-45470 Muelheim/Ruhr              #
                  #                       Germany                       #
                  #                                                     #
                  #                  All rights reserved                #
                  #                        -***-                        #
                  #######################################################


                         Program Version 3.0.3 - RELEASE   -


 With contributions from (in alphabetic order):
   Ute Becker             : Parallelization
   Dmytro Bykov           : SCF Hessian
   Dmitry Ganyushin       : Spin-Orbit,Spin-Spin,Magnetic field MRCI
   Andreas Hansen         : Spin unrestricted coupled pair/coupled cluster methods
   Dimitrios Liakos       : Extrapolation schemes; parallel MDCI
   Robert Izsak           : Overlap fitted RIJCOSX, COSX-SCS-MP3
   Christian Kollmar      : KDIIS, OOCD, Brueckner-CCSD(T), CCSD density
   Simone Kossmann        : Meta GGA functionals, TD-DFT gradient, OOMP2, MP2 Hessian
   Taras Petrenko         : DFT Hessian,TD-DFT gradient, ASA and ECA modules, normal mode analysis, Resonance Raman, ABS, FL, XAS/XES, NRVS
   Christoph Reimann      : Effective Core Potentials
   Michael Roemelt        : Restricted open shell CIS
   Christoph Riplinger    : Improved optimizer, TS searches, QM/MM, DLPNO-CCSD
   Barbara Sandhoefer     : DKH picture change effects
   Igor Schapiro          : Molecular dynamics
   Kantharuban Sivalingam : CASSCF convergence, NEVPT2
   Boris Wezisla          : Elementary symmetry handling
   Frank Wennmohs         : Technical directorship


 We gratefully acknowledge several colleagues who have allowed us to
 interface, adapt or use parts of their codes:
   Stefan Grimme, W. Hujo, H. Kruse, T. Risthaus : VdW corrections, initial TS optimization,
                                                   DFT functionals, gCP
   Ed Valeev                                     : LibInt (2-el integral package), F12 methods
   Garnet Chan, S. Sharma, R. Olivares           : DMRG
   Ulf Ekstrom                                   : XCFun DFT Library
   Mihaly Kallay                                 : mrcc  (arbitrary order and MRCC methods)
   Andreas Klamt, Michael Diedenhofen            : otool_cosmo (COSMO solvation model)
   Frank Weinhold                                : gennbo (NPA and NBO analysis)
   Christopher J. Cramer and Donald G. Truhlar   : smd solvation model


 Your calculation uses the libint2 library for the computation of 2-el integrals
 For citations please refer to: http://libint.valeyev.net

 This ORCA versions uses:
   CBLAS   interface :  Fast vector & matrix operations
   LAPACKE interface :  Fast linear algebra routines
   SCALAPACK package :  Parallel linear algebra routines


leaving
================================================================================
                                        WARNINGS
                       Please study these warnings very carefully!
================================================================================
Now building the actual basis set

WARNING: Direct SCF is incompatible with Method<>HF and Method<>DFT
  ===> : conventional SCF is chosen

WARNING: The NDO methods need Guess=HUECKEL or Guess=HCORE or Guess=MOREAD
  ===> : Guess is set to Hueckel

WARNING: The NDO methods need %rel::SOCType==1
  ===> : %rel::SOCType is set to 1

WARNING: The NDO methods cannot have frozencore=1
  ===> : %method FrozenCore=0 end


INFO   : the flag for use of LIBINT has been found!

================================================================================
                                       INPUT FILE
================================================================================
NAME = /Users/mattyjones/GoogleDrive/Boise/Code/MorphCT/tests/output_EZ/donor_polymer/chromophores/input_orca/pair/00000-00010.inp
|  1> # ================================================================
|  2> # Orca input file made by Matty Jones
|  3> # ================================================================
|  4> ! ZINDO/S 
|  5> ! NOPOP
|  6> ! NOMOPRINT
|  7> * xyz 0   1
|  8>  C  -9.24560  14.99518  30.53257
|  9>  C  -8.91139  13.83159  29.83813
| 10>  C  -7.62990  13.29641  30.17819
| 11>  C  -6.94879  14.04115  31.14605
| 12>  S  -7.95381  15.30485  31.52478
| 13>  H  -9.51985  13.56662  28.91068
| 14>  C  -7.24747  11.95116  29.37340
| 15>  C  -7.90746  12.04134  27.77065
| 16>  C  -9.51148  11.39767  27.83841
| 17>  H  -9.27875  10.25415  27.72712
| 18>  H  -9.86278  11.53467  28.93642
| 19>  H  -7.92983  13.12167  27.39732
| 20>  H  -7.27441  11.38863  27.07372
| 21>  H  -7.67002  11.01218  29.89854
| 22>  H  -6.09741  11.84749  29.26776
| 23>  C  -10.84888  11.61082  26.90248
| 24>  C  -11.13122  12.78509  25.70929
| 25>  C  -12.09152  14.09609  26.16838
| 26>  H  -13.13930  13.98477  25.68681
| 27>  H  -11.60274  15.07758  25.79860
| 28>  H  -12.19733  14.12382  27.31933
| 29>  H  -11.65836  12.26322  24.82613
| 30>  H  -10.11130  13.19206  25.36481
| 31>  H  -11.02813  10.59958  26.35551
| 32>  H  -11.73297  11.75532  27.64871
| 33>  C  11.90400  -9.54094  -29.29619
| 34>  C  11.29644  -10.70841  -28.83165
| 35>  C  11.86638  -11.22310  -27.62560
| 36>  C  12.92933  -10.45819  -27.13535
| 37>  S  13.10559  -9.20298  -28.20483
| 38>  H  10.42680  -11.22613  -29.35753
| 39>  C  11.28630  -12.57076  -26.94928
| 40>  C  9.62092  -12.74605  -26.59552
| 41>  C  8.31488  -13.35022  -27.50525
| 42>  H  7.79600  -14.11524  -26.79740
| 43>  H  7.59495  -12.44573  -27.62772
| 44>  H  9.61755  -13.40415  -25.63908
| 45>  H  9.29172  -11.67554  -26.29880
| 46>  H  11.79118  -12.79877  -25.93558
| 47>  H  11.52451  -13.46019  -27.66242
| 48>  C  8.43328  -14.06917  -28.96005
| 49>  C  6.89563  -14.46190  -29.57290
| 50>  C  6.28384  -15.96819  -29.13595
| 51>  H  5.13984  -15.97964  -29.31617
| 52>  H  6.50163  -16.16565  -28.01741
| 53>  H  6.78470  -16.78630  -29.78255
| 54>  H  6.95702  -14.42226  -30.72303
| 55>  H  6.15223  -13.66218  -29.20260
| 56>  H  8.94508  -13.35983  -29.71265
| 57>  H  9.04577  -15.04399  -28.87852
| 58>  H  -10.13726  15.56152  30.44428
| 59>  H  -5.99070  13.84011  31.55255
| 60>  H  11.65067  -8.98712  -30.16377
| 61>  H  13.50246  -10.64213  -26.26282
| 62> *
| 63> 
| 64>                          ****END OF INPUT****
================================================================================

                       ****************************
                       * Single Point Calculation *
                       ****************************

---------------------------------
CARTESIAN COORDINATES (ANGSTROEM)
---------------------------------
  C     -9.245600   14.995180   30.532570
  C     -8.911390   13.831590   29.838130
  C     -7.629900   13.296410   30.178190
  C     -6.948790   14.041150   31.146050
  S     -7.953810   15.304850   31.524780
  H     -9.519850   13.566620   28.910680
  C     -7.247470   11.951160   29.373400
  C     -7.907460   12.041340   27.770650
  C     -9.511480   11.397670   27.838410
  H     -9.278750   10.254150   27.727120
  H     -9.862780   11.534670   28.936420
  H     -7.929830   13.121670   27.397320
  H     -7.274410   11.388630   27.073720
  H     -7.670020   11.012180   29.898540
  H     -6.097410   11.847490   29.267760
  C    -10.848880   11.610820   26.902480
  C    -11.131220   12.785090   25.709290
  C    -12.091520   14.096090   26.168380
  H    -13.139300   13.984770   25.686810
  H    -11.602740   15.077580   25.798600
  H    -12.197330   14.123820   27.319330
  H    -11.658360   12.263220   24.826130
  H    -10.111300   13.192060   25.364810
  H    -11.028130   10.599580   26.355510
  H    -11.732970   11.755320   27.648710
  C     11.904000   -9.540940  -29.296190
  C     11.296440  -10.708410  -28.831650
  C     11.866380  -11.223100  -27.625600
  C     12.929330  -10.458190  -27.135350
  S     13.105590   -9.202980  -28.204830
  H     10.426800  -11.226130  -29.357530
  C     11.286300  -12.570760  -26.949280
  C      9.620920  -12.746050  -26.595520
  C      8.314880  -13.350220  -27.505250
  H      7.796000  -14.115240  -26.797400
  H      7.594950  -12.445730  -27.627720
  H      9.617550  -13.404150  -25.639080
  H      9.291720  -11.675540  -26.298800
  H     11.791180  -12.798770  -25.935580
  H     11.524510  -13.460190  -27.662420
  C      8.433280  -14.069170  -28.960050
  C      6.895630  -14.461900  -29.572900
  C      6.283840  -15.968190  -29.135950
  H      5.139840  -15.979640  -29.316170
  H      6.501630  -16.165650  -28.017410
  H      6.784700  -16.786300  -29.782550
  H      6.957020  -14.422260  -30.723030
  H      6.152230  -13.662180  -29.202600
  H      8.945080  -13.359830  -29.712650
  H      9.045770  -15.043990  -28.878520
  H    -10.137260   15.561520   30.444280
  H     -5.990700   13.840110   31.552550
  H     11.650670   -8.987120  -30.163770
  H     13.502460  -10.642130  -26.262820

----------------------------
CARTESIAN COORDINATES (A.U.)
----------------------------
  NO LB      ZA    FRAG    MASS        X           Y           Z
   0 C     4.0000    0    12.011        -17.471651943782323         28.336783528853275         57.698195464779992
   1 C     4.0000    0    12.011        -16.840086572564505         26.137917096683847         56.385894048339715
   2 C     4.0000    0    12.011        -14.418421429205758         25.126573464331869         57.028514317440980
   3 C     4.0000    0    12.011        -13.131310062130654         26.533928105308384         58.857504653417998
   4 S     6.0000    0    32.060        -15.030522621244190         28.921975020744668         59.573200632117995
   5 H     1.0000    0     1.008        -17.989909336010228         25.637196362978731         54.633267545434450
   6 C     4.0000    0    12.011        -13.695733463810253         22.584419382674305         55.507681622122497
   7 C     4.0000    0    12.011        -14.942933814936941         22.754834885431325         52.478923060980208
   8 C     4.0000    0    12.011        -17.974092328269307         21.538474864810233         52.606970903814712
   9 H     1.0000    0     1.008        -17.534296365121815         19.377535236148603         52.396663282370611
  10 H     1.0000    0     1.008        -18.637953119115846         21.797367345157443         54.681909096121579
  11 H     1.0000    0     1.008        -14.985206988552759         24.796362719690471         51.773431603403388
  12 H     1.0000    0     1.008        -13.746642685858092         21.521391740559583         51.161916226466474
  13 H     1.0000    0     1.008        -14.494237241698679         20.810004337444930         56.500052404089899
  14 H     1.0000    0     1.008        -11.522435026232779         22.388511474370691         55.308050953335048
  15 C     4.0000    0    12.011        -20.501412059775589         21.941269990255549         50.838319523293798
  16 C     4.0000    0    12.011        -21.034957336426917         24.160318697535256         48.583517197560298
  17 C     4.0000    0    12.011        -22.849661342831492         26.637749659106017         49.451071568382204
  18 H     1.0000    0     1.008        -24.829678591431502         26.427385345877902         48.541036154069751
  19 H     1.0000    0     1.008        -21.926001003093464         28.492496962288385         48.752288638580801
  20 H     1.0000    0     1.008        -23.049613265061698         26.690151764799655         51.626051862218873
  21 H     1.0000    0     1.008        -22.031107570662165         23.174127320025772         46.914586665126400
  22 H     1.0000    0     1.008        -19.107587857917952         24.929380542257185         47.932544338947103
  23 H     1.0000    0     1.008        -20.840145469280976         20.030303334589021         49.804696019822885
  24 H     1.0000    0     1.008        -22.172100037514028         22.214335416607167         52.248489856209851
  25 C     4.0000    0    12.011         22.495299898198578        -18.029763660174627        -55.361775867322436
  26 C     4.0000    0    12.011         21.347177888273386        -20.235962229743670        -54.483922489070657
  27 C     4.0000    0    12.011         22.424208401040460        -21.208585373611601        -52.204818285254930
  28 C     4.0000    0    12.011         24.432892795092059        -19.763114956513895        -51.278380048100033
  29 S     6.0000    0    32.060         24.765975923457017        -17.391111815954602        -53.299404353806139
  30 H     1.0000    0     1.008         19.703796453170106        -21.214311243797379        -55.477691668377162
  31 C     4.0000    0    12.011         21.328016065275424        -23.755293695251915        -50.926758706361312
  32 C     4.0000    0    12.011         18.180903956365647        -24.086543789266969        -50.258249189225324
  33 C     4.0000    0    12.011         15.712846036419139        -25.228259627598174        -51.977389745037506
  34 H     1.0000    0     1.008         14.732304940050078        -26.673937914570608        -50.639747101141346
  35 H     1.0000    0     1.008         14.352375500825209        -23.519021236727738        -52.208824504658843
  36 H     1.0000    0     1.008         18.174535579294332        -25.330172558000545        -48.450839525697688
  37 H     1.0000    0     1.008         17.558806113078774        -22.063573065642931        -49.697529650768210
  38 H     1.0000    0     1.008         22.282100995769586        -24.186170151047296        -49.011143324405339
  39 H     1.0000    0     1.008         21.778167727636802        -25.436072810545493        -52.274398001505915
  40 C     4.0000    0    12.011         15.936589610675412        -26.586878231580855        -54.726563324666145
  41 C     4.0000    0    12.011         13.030852220851401        -27.329030376155750        -55.884681985839784
  42 C     4.0000    0    12.011         11.874736669379717        -30.175505954419993        -55.058966151622897
  43 H     1.0000    0     1.008          9.712889972173807        -30.197143318653389        -55.399532595478178
  44 H     1.0000    0     1.008         12.286300124086427        -30.548651276824081        -52.945231881786619
  45 H     1.0000    0     1.008         12.821224900815515        -31.721509801842309        -56.280863069816377
  46 H     1.0000    0     1.008         13.146862508212827        -27.254121632207109        -58.058112704246632
  47 H     1.0000    0     1.008         11.626029812894343        -25.817778592336246        -55.184916398448742
  48 H     1.0000    0     1.008         16.903751446016312        -25.246419895745156        -56.148771213055277
  49 H     1.0000    0     1.008         17.094027970440838        -28.429021061449973        -54.572493952967548
  50 H     1.0000    0     1.008        -19.156645148354546         29.407011027538235         57.531351544416083
  51 H     1.0000    0     1.008        -11.320782350482043         26.154017563344851         59.625678326856992
  52 H     1.0000    0     1.008         22.016575576692308        -16.983195532686359        -57.001264466589831
  53 H     1.0000    0     1.008         25.515951534226343        -20.110711181587369        -49.629537304469729

--------------------------------
INTERNAL COORDINATES (ANGSTROEM)
--------------------------------
 C      0   0   0   0.000000     0.000     0.000
 C      1   0   0   1.395666     0.000     0.000
 C      2   1   0   1.429781   114.101     0.000
 C      3   2   1   1.398321   113.693     0.000
 S      1   2   3   1.658040   105.480     0.000
 H      2   1   3   1.140437   118.073   195.319
 C      3   2   1   1.613579   113.945   179.989
 C      7   3   2   1.735663   109.095    34.394
 C      8   7   3   1.729677   107.285   271.669
 H      9   8   7   1.172257   100.089   275.528
 H      9   8   7   1.160951   105.888    24.826
 H      8   7   3   1.143236   110.983    32.185
 H      8   7   3   1.145641   108.786   153.989
 H      7   3   2   1.155856   111.348   274.263
 H      7   3   2   1.159545   110.796   152.326
 C      9   8   7   1.646219   133.073   156.109
 C     16   9   8   1.697742   128.626   347.434
 C     17  16   9   1.688686   116.134   259.070
 H     18  17  16   1.158510   109.069   254.119
 H     18  17  16   1.157137   109.355   134.628
 H     18  17  16   1.156136   109.957    14.169
 H     17  16   9   1.153341   107.530   138.746
 H     17  16   9   1.150881   107.913    20.565
 H     16   9   8   1.163578   106.253   111.473
 H     16   9   8   1.165914   105.557   224.841
 C     22  17  16  62.927194   130.109   261.445
 C     26  22  17   1.395676    80.826   124.283
 C     27  26  22   1.429788   114.101   295.390
 C     28  27  26   1.398319   113.693     0.000
 S     26  22  17   1.658042    68.568    13.562
 H     27  26  22   1.140551   123.928   115.864
 C     28  27  26   1.615577   120.682   180.107
 C     32  28  27   1.711538   121.421   307.098
 C     33  32  28   1.702460   132.249    89.752
 H     34  33  32   1.164278   104.489   129.761
 H     34  33  32   1.162497   104.790   242.588
 H     33  32  28   1.160984   103.365   212.752
 H     33  32  28   1.158623   103.578   325.534
 H     32  28  27   1.155197   112.029   185.097
 H     32  28  27   1.164645   107.895    67.222
 C     34  33  32   1.627068   125.364     6.720
 C     41  34  33   1.701232   110.998   182.821
 C     42  41  34   1.683485   116.201   271.461
 H     43  42  41   1.158165   109.112   162.058
 H     43  42  41   1.156527   109.594    42.092
 H     43  42  41   1.156830   109.290   281.758
 H     42  41  34   1.152449   107.664   150.243
 H     42  41  34   1.152960   107.876    32.356
 H     41  34  33   1.153910   110.109   302.272
 H     41  34  33   1.154151   110.406    63.006
 H      1   2   3   1.059997   127.260   179.999
 H      4   3   2   1.059998   127.206   180.000
 H     26  22  17   1.059994   115.685   251.357
 H     29  28  27   1.060010   127.205   180.001

---------------------------
INTERNAL COORDINATES (A.U.)
---------------------------
 C      0   0   0   0.000000     0.000     0.000
 C      1   0   0   2.637427     0.000     0.000
 C      2   1   0   2.701895   114.101     0.000
 C      3   2   1   2.642444   113.693     0.000
 S      1   2   3   3.133242   105.480     0.000
 H      2   1   3   2.155113   118.073   195.319
 C      3   2   1   3.049222   113.945   179.989
 C      7   3   2   3.279928   109.095    34.394
 C      8   7   3   3.268616   107.285   271.669
 H      9   8   7   2.215245   100.089   275.528
 H      9   8   7   2.193879   105.888    24.826
 H      8   7   3   2.160403   110.983    32.185
 H      8   7   3   2.164948   108.786   153.989
 H      7   3   2   2.184252   111.348   274.263
 H      7   3   2   2.191223   110.796   152.326
 C      9   8   7   3.110903   133.073   156.109
 C     16   9   8   3.208268   128.626   347.434
 C     17  16   9   3.191154   116.134   259.070
 H     18  17  16   2.189266   109.069   254.119
 H     18  17  16   2.186672   109.355   134.628
 H     18  17  16   2.184781   109.957    14.169
 H     17  16   9   2.179499   107.530   138.746
 H     17  16   9   2.174851   107.913    20.565
 H     16   9   8   2.198843   106.253   111.473
 H     16   9   8   2.203257   105.557   224.841
 C     22  17  16 118.915163   130.109   261.445
 C     26  22  17   2.637446    80.826   124.283
 C     27  26  22   2.701908   114.101   295.390
 C     28  27  26   2.642439   113.693     0.000
 S     26  22  17   3.133245    68.568    13.562
 H     27  26  22   2.155330   123.928   115.864
 C     28  27  26   3.052998   120.682   180.107
 C     32  28  27   3.234339   121.421   307.098
 C     33  32  28   3.217183   132.249    89.752
 H     34  33  32   2.200167   104.489   129.761
 H     34  33  32   2.196802   104.790   242.588
 H     33  32  28   2.193942   103.365   212.752
 H     33  32  28   2.189480   103.578   325.534
 H     32  28  27   2.183006   112.029   185.097
 H     32  28  27   2.200860   107.895    67.222
 C     34  33  32   3.074713   125.364     6.720
 C     41  34  33   3.214862   110.998   182.821
 C     42  41  34   3.181326   116.201   271.461
 H     43  42  41   2.188615   109.112   162.058
 H     43  42  41   2.185519   109.594    42.092
 H     43  42  41   2.186092   109.290   281.758
 H     42  41  34   2.177813   107.664   150.243
 H     42  41  34   2.178779   107.876    32.356
 H     41  34  33   2.180575   110.109   302.272
 H     41  34  33   2.181030   110.406    63.006
 H      1   2   3   2.003104   127.260   179.999
 H      4   3   2   2.003106   127.206   180.000
 H     26  22  17   2.003099   115.685   251.357
 H     29  28  27   2.003128   127.205   180.001

----------------------------
SLATER BASIS SET DIM= 120
----------------------------
  0 C     2 shells
 l=0 nsto= 1
    2       1.625000000000        1.000000000000
 l=1 nsto= 1
    2       1.625000000000        1.000000000000
  1 C     2 shells
 l=0 nsto= 1
    2       1.625000000000        1.000000000000
 l=1 nsto= 1
    2       1.625000000000        1.000000000000
  2 C     2 shells
 l=0 nsto= 1
    2       1.625000000000        1.000000000000
 l=1 nsto= 1
    2       1.625000000000        1.000000000000
  3 C     2 shells
 l=0 nsto= 1
    2       1.625000000000        1.000000000000
 l=1 nsto= 1
    2       1.625000000000        1.000000000000
  4 S     2 shells
 l=0 nsto= 1
    3       1.925000000000        1.000000000000
 l=1 nsto= 1
    3       1.925000000000        1.000000000000
  5 H     1 shells
 l=0 nsto= 1
    1       1.200000000000        1.000000000000
  6 C     2 shells
 l=0 nsto= 1
    2       1.625000000000        1.000000000000
 l=1 nsto= 1
    2       1.625000000000        1.000000000000
  7 C     2 shells
 l=0 nsto= 1
    2       1.625000000000        1.000000000000
 l=1 nsto= 1
    2       1.625000000000        1.000000000000
  8 C     2 shells
 l=0 nsto= 1
    2       1.625000000000        1.000000000000
 l=1 nsto= 1
    2       1.625000000000        1.000000000000
  9 H     1 shells
 l=0 nsto= 1
    1       1.200000000000        1.000000000000
 10 H     1 shells
 l=0 nsto= 1
    1       1.200000000000        1.000000000000
 11 H     1 shells
 l=0 nsto= 1
    1       1.200000000000        1.000000000000
 12 H     1 shells
 l=0 nsto= 1
    1       1.200000000000        1.000000000000
 13 H     1 shells
 l=0 nsto= 1
    1       1.200000000000        1.000000000000
 14 H     1 shells
 l=0 nsto= 1
    1       1.200000000000        1.000000000000
 15 C     2 shells
 l=0 nsto= 1
    2       1.625000000000        1.000000000000
 l=1 nsto= 1
    2       1.625000000000        1.000000000000
 16 C     2 shells
 l=0 nsto= 1
    2       1.625000000000        1.000000000000
 l=1 nsto= 1
    2       1.625000000000        1.000000000000
 17 C     2 shells
 l=0 nsto= 1
    2       1.625000000000        1.000000000000
 l=1 nsto= 1
    2       1.625000000000        1.000000000000
 18 H     1 shells
 l=0 nsto= 1
    1       1.200000000000        1.000000000000
 19 H     1 shells
 l=0 nsto= 1
    1       1.200000000000        1.000000000000
 20 H     1 shells
 l=0 nsto= 1
    1       1.200000000000        1.000000000000
 21 H     1 shells
 l=0 nsto= 1
    1       1.200000000000        1.000000000000
 22 H     1 shells
 l=0 nsto= 1
    1       1.200000000000        1.000000000000
 23 H     1 shells
 l=0 nsto= 1
    1       1.200000000000        1.000000000000
 24 H     1 shells
 l=0 nsto= 1
    1       1.200000000000        1.000000000000
 25 C     2 shells
 l=0 nsto= 1
    2       1.625000000000        1.000000000000
 l=1 nsto= 1
    2       1.625000000000        1.000000000000
 26 C     2 shells
 l=0 nsto= 1
    2       1.625000000000        1.000000000000
 l=1 nsto= 1
    2       1.625000000000        1.000000000000
 27 C     2 shells
 l=0 nsto= 1
    2       1.625000000000        1.000000000000
 l=1 nsto= 1
    2       1.625000000000        1.000000000000
 28 C     2 shells
 l=0 nsto= 1
    2       1.625000000000        1.000000000000
 l=1 nsto= 1
    2       1.625000000000        1.000000000000
 29 S     2 shells
 l=0 nsto= 1
    3       1.925000000000        1.000000000000
 l=1 nsto= 1
    3       1.925000000000        1.000000000000
 30 H     1 shells
 l=0 nsto= 1
    1       1.200000000000        1.000000000000
 31 C     2 shells
 l=0 nsto= 1
    2       1.625000000000        1.000000000000
 l=1 nsto= 1
    2       1.625000000000        1.000000000000
 32 C     2 shells
 l=0 nsto= 1
    2       1.625000000000        1.000000000000
 l=1 nsto= 1
    2       1.625000000000        1.000000000000
 33 C     2 shells
 l=0 nsto= 1
    2       1.625000000000        1.000000000000
 l=1 nsto= 1
    2       1.625000000000        1.000000000000
 34 H     1 shells
 l=0 nsto= 1
    1       1.200000000000        1.000000000000
 35 H     1 shells
 l=0 nsto= 1
    1       1.200000000000        1.000000000000
 36 H     1 shells
 l=0 nsto= 1
    1       1.200000000000        1.000000000000
 37 H     1 shells
 l=0 nsto= 1
    1       1.200000000000        1.000000000000
 38 H     1 shells
 l=0 nsto= 1
    1       1.200000000000        1.000000000000
 39 H     1 shells
 l=0 nsto= 1
    1       1.200000000000        1.000000000000
 40 C     2 shells
 l=0 nsto= 1
    2       1.625000000000        1.000000000000
 l=1 nsto= 1
    2       1.625000000000        1.000000000000
 41 C     2 shells
 l=0 nsto= 1
    2       1.625000000000        1.000000000000
 l=1 nsto= 1
    2       1.625000000000        1.000000000000
 42 C     2 shells
 l=0 nsto= 1
    2       1.625000000000        1.000000000000
 l=1 nsto= 1
    2       1.625000000000        1.000000000000
 43 H     1 shells
 l=0 nsto= 1
    1       1.200000000000        1.000000000000
 44 H     1 shells
 l=0 nsto= 1
    1       1.200000000000        1.000000000000
 45 H     1 shells
 l=0 nsto= 1
    1       1.200000000000        1.000000000000
 46 H     1 shells
 l=0 nsto= 1
    1       1.200000000000        1.000000000000
 47 H     1 shells
 l=0 nsto= 1
    1       1.200000000000        1.000000000000
 48 H     1 shells
 l=0 nsto= 1
    1       1.200000000000        1.000000000000
 49 H     1 shells
 l=0 nsto= 1
    1       1.200000000000        1.000000000000
 50 H     1 shells
 l=0 nsto= 1
    1       1.200000000000        1.000000000000
 51 H     1 shells
 l=0 nsto= 1
    1       1.200000000000        1.000000000000
 52 H     1 shells
 l=0 nsto= 1
    1       1.200000000000        1.000000000000
 53 H     1 shells
 l=0 nsto= 1
    1       1.200000000000        1.000000000000
------------------------------------------------------------------------------
                           ORCA NDO INTEGRAL CALCULATION
------------------------------------------------------------------------------

--------------
NDO PARAMETERS
--------------

Gamma integral treatment              ... Mataga-Nishimoto
Nuclear repulsuion treatment          ... Direct (ZA*ZB/RAB)
Interaction factors:
s-s (sigma) =    1.0000
s-p (sigma) =    1.0000
s-d (sigma) =    1.0000
p-p (sigma) =    1.2670  p-p(pi) =    0.5850
p-d (sigma) =    1.0000  p-d(pi) =    1.0000
d-d (sigma) =    1.0000  d-d(pi) =    1.0000 d-d (delta) =    1.0000

fGamma parameter for Mataga-Nishimoto gamma integrals:    1.2000

--------------------------
Parameters for Element H :
--------------------------
 One-electron parameters (in eV)
  U(s)  =   -13.060000 Beta(s) =    12.000000 Neff(s) =     1.000000
 One-center electron repulsion parameters (in eV)
  G(s,s)=    12.850000
--------------------------
Parameters for Element C :
--------------------------
 One-electron parameters (in eV)
  U(s)  =   -50.870766 Beta(s) =    17.000000 Neff(s) =     2.000000
  U(p)  =   -41.599980 Beta(p) =    17.000000 Neff(p) =     2.000000 
 One-center electron repulsion parameters (in eV)
  G(s,s)=    11.110000
  G(s,p)=    11.110000 G(p,p)  =    11.110000
 Slater-Condon parameters (in eV)
 F2(p,p)=     4.5098 G1(s,p)=    6.8977
--------------------------
Parameters for Element S :
--------------------------
 One-electron parameters (in eV)
  U(s)  =   -69.509597 Beta(s) =    15.000000 Neff(s) =     2.000000
  U(p)  =   -60.725746 Beta(p) =    15.000000 Neff(p) =     4.000000 
 One-center electron repulsion parameters (in eV)
  G(s,s)=    10.090000
  G(s,p)=    10.090000 G(p,p)  =    10.090000
 Slater-Condon parameters (in eV)
 F2(p,p)=     4.5377 G1(s,p)=    3.0756

 Number of atoms                    ....   54
 Number of basis functions          ....  120

 Overlap integrals                  .... done
 One electron matrix                .... done
 Nuclear repulsion                  .... done
 Integral list                      .... done
 Electron-electron repulsion        .... done
-------------------------------------------------------------------------------
                                 ORCA SCF
-------------------------------------------------------------------------------

------------
SCF SETTINGS
------------
Hamiltonian:
 ZDO-Hamiltonian        Method          .... INDO


General Settings:
 Integral files         IntName         .... /Users/mattyjones/GoogleDrive/Boise/Code/MorphCT/tests/output_EZ/donor_polymer/chromophores/input_orca/pair/00000-00010
 Hartree-Fock type      HFTyp           .... RHF
 Total Charge           Charge          ....    0
 Multiplicity           Mult            ....    1
 Number of Electrons    NEL             ....  124
 Basis Dimension        Dim             ....  120
 Nuclear Repulsion      ENuc            ....    630.3231597705 Eh

Convergence Acceleration:
 DIIS                   CNVDIIS         .... on
   Start iteration      DIISMaxIt       ....    12
   Startup error        DIISStart       ....  0.200000
   # of expansion vecs  DIISMaxEq       ....     5
   Bias factor          DIISBfac        ....   1.050
   Max. coefficient     DIISMaxC        ....  10.000
 Newton-Raphson         CNVNR           .... off
 SOSCF                  CNVSOSCF        .... on
   Start iteration      SOSCFMaxIt      ....   150
   Startup grad/error   SOSCFStart      ....  0.003300
 Level Shifting         CNVShift        .... on
   Level shift para.    LevelShift      ....    0.2500
   Turn off err/grad.   ShiftErr        ....    0.0010
 Zerner damping         CNVZerner       .... off
 Static damping         CNVDamp         .... on
   Fraction old density DampFac         ....    0.7000
   Max. Damping (<1)    DampMax         ....    0.9800
   Min. Damping (>=0)   DampMin         ....    0.0000
   Turn off err/grad.   DampErr         ....    0.1000
 Fernandez-Rico         CNVRico         .... off

SCF Procedure:
 Maximum # iterations   MaxIter         ....   125
 SCF integral mode      SCFMode         .... Conventional
 Integral Buffer length BufferLength    .... 1048576
 Integral index format  IndFormat       ....     0
 Integral value format  ValFormat       ....     0
 Integral Storage       Thresh          ....  1.000e-08 Eh

Convergence Tolerance:
 Convergence Check Mode ConvCheckMode   .... Total+1el-Energy
 Energy Change          TolE            ....  1.000e-06 Eh
 1-El. energy change                    ....  1.000e-03 Eh
 Orbital Gradient       TolG            ....  5.000e-05
 Orbital Rotation angle TolX            ....  5.000e-05
 DIIS Error             TolErr          ....  1.000e-06


Diagonalization of the overlap matrix:
Smallest eigenvalue                        ... 1.695e-01
Time for diagonalization                   ...    0.003 sec
Threshold for overlap eigenvalues          ... 1.000e-08
Number of eigenvalues below threshold      ... 0
Time for construction of square roots      ...    0.002 sec
Total time needed                          ...    0.006 sec

-------------------------------
INITIAL GUESS: EXTENDED HUECKEL
-------------------------------
EHT matrix was read from disk
EHT matrix was diagonalized
Initial density was built
                      ------------------
                      INITIAL GUESS DONE
                      ------------------

 InCore treatment chosen:
   Memory dedicated               ...    1024 MB
   Memory needed                  ...      0 MB
   Number of tiny    integrals    ...       0
   Number of small   integrals    ...       0
   Number of regular integrals    ...    7392

--------------
SCF ITERATIONS
--------------
ITER       Energy         Delta-E        Max-DP      RMS-DP      [F,P]     Damp
  0    -16.3850447176   0.000000000000 0.03799398  0.00143731  0.0886215 0.7000
  1    -16.4267311151  -0.041686397465 0.03596364  0.00135453  0.0629530 0.7000
                               ***Turning on DIIS***
  2    -16.4576307085  -0.030899593406 0.09126049  0.00348006  0.0407496 0.0000
  3    -16.5369234985  -0.079292789958 0.01882660  0.00071729  0.0157029 0.0000
  4    -16.5238333401   0.013090158333 0.00903482  0.00049187  0.0062526 0.0000
  5    -16.5407657348  -0.016932394673 0.00646833  0.00033152  0.0036723 0.0000
  6    -16.5438593114  -0.003093576620 0.00451820  0.00023506  0.0019924 0.0000
                      *** Initiating the SOSCF procedure ***
                           *** Shutting down DIIS ***
                      *** Re-Reading the Fockian *** 
                      *** Removing any level shift *** 
ITER      Energy       Delta-E        Grad      Rot      Max-DP    RMS-DP
  7    -16.53936046   0.0044988531  0.003026  0.003026  0.004171  0.000222
  8    -16.53712399   0.0022364694  0.000295  0.000785  0.000489  0.000024
  9    -16.53712575  -0.0000017639  0.000148  0.000619  0.000460  0.000020
                 **** Energy Check signals convergence ****
              ***Rediagonalizing the Fockian in SOSCF/NRSCF***

               *****************************************************
               *                     SUCCESS                       *
               *           SCF CONVERGED AFTER  10 CYCLES          *
               *****************************************************


----------------
TOTAL SCF ENERGY
----------------

Total Energy       :          -16.53712643 Eh            -449.99809 eV

Components:
Nuclear Repulsion  :          630.32315977 Eh           17151.96517 eV
Electronic Energy  :         -646.86028620 Eh          -17601.96325 eV

One Electron Energy:        -1203.38985643 Eh          -32745.90276 eV
Two Electron Energy:          556.52957023 Eh           15143.93951 eV


---------------
SCF CONVERGENCE
---------------

  Last Energy change         ...   -6.7270e-07  Tolerance :   1.0000e-06
  Last MAX-Density change    ...    3.9892e-05  Tolerance :   1.0000e-05
  Last RMS-Density change    ...    2.1577e-06  Tolerance :   1.0000e-06
  Last Orbital Gradient      ...    1.4246e-05  Tolerance :   5.0000e-05
  Last Orbital Rotation      ...    5.5868e-05  Tolerance :   5.0000e-05

             **** THE GBW FILE WAS UPDATED (/Users/mattyjones/GoogleDrive/Boise/Code/MorphCT/tests/output_EZ/donor_polymer/chromophores/input_orca/pair/00000-00010.gbw) ****
             **** DENSITY FILE WAS UPDATED (/Users/mattyjones/GoogleDrive/Boise/Code/MorphCT/tests/output_EZ/donor_polymer/chromophores/input_orca/pair/00000-00010.scfp.tmp) ****
             **** ENERGY FILE WAS UPDATED (/Users/mattyjones/GoogleDrive/Boise/Code/MorphCT/tests/output_EZ/donor_polymer/chromophores/input_orca/pair/00000-00010.en.tmp) ****
----------------
ORBITAL ENERGIES
----------------

  NO   OCC          E(Eh)            E(eV) 
   0   2.0000      -1.565889       -42.6100 
   1   2.0000      -1.556302       -42.3491 
   2   2.0000      -1.393217       -37.9114 
   3   2.0000      -1.384716       -37.6800 
   4   2.0000      -1.302067       -35.4310 
   5   2.0000      -1.289005       -35.0756 
   6   2.0000      -1.179981       -32.1089 
   7   2.0000      -1.176543       -32.0154 
   8   2.0000      -1.120588       -30.4928 
   9   2.0000      -1.111071       -30.2338 
  10   2.0000      -1.057031       -28.7633 
  11   2.0000      -1.022893       -27.8343 
  12   2.0000      -0.968442       -26.3527 
  13   2.0000      -0.968076       -26.3427 
  14   2.0000      -0.926681       -25.2163 
  15   2.0000      -0.897598       -24.4249 
  16   2.0000      -0.853566       -23.2267 
  17   2.0000      -0.843446       -22.9513 
  18   2.0000      -0.829441       -22.5702 
  19   2.0000      -0.825754       -22.4699 
  20   2.0000      -0.776272       -21.1234 
  21   2.0000      -0.768102       -20.9011 
  22   2.0000      -0.746673       -20.3180 
  23   2.0000      -0.737155       -20.0590 
  24   2.0000      -0.690026       -18.7766 
  25   2.0000      -0.684577       -18.6283 
  26   2.0000      -0.678044       -18.4505 
  27   2.0000      -0.674366       -18.3504 
  28   2.0000      -0.639737       -17.4081 
  29   2.0000      -0.639076       -17.3901 
  30   2.0000      -0.607048       -16.5186 
  31   2.0000      -0.597334       -16.2543 
  32   2.0000      -0.596517       -16.2321 
  33   2.0000      -0.589833       -16.0502 
  34   2.0000      -0.581830       -15.8324 
  35   2.0000      -0.575314       -15.6551 
  36   2.0000      -0.574365       -15.6293 
  37   2.0000      -0.573905       -15.6168 
  38   2.0000      -0.550303       -14.9745 
  39   2.0000      -0.545858       -14.8536 
  40   2.0000      -0.537740       -14.6326 
  41   2.0000      -0.528284       -14.3753 
  42   2.0000      -0.528219       -14.3736 
  43   2.0000      -0.519270       -14.1301 
  44   2.0000      -0.504982       -13.7412 
  45   2.0000      -0.503489       -13.7006 
  46   2.0000      -0.497551       -13.5391 
  47   2.0000      -0.492893       -13.4123 
  48   2.0000      -0.490372       -13.3437 
  49   2.0000      -0.489408       -13.3175 
  50   2.0000      -0.476649       -12.9703 
  51   2.0000      -0.474670       -12.9164 
  52   2.0000      -0.464314       -12.6346 
  53   2.0000      -0.463034       -12.5998 
  54   2.0000      -0.459980       -12.5167 
  55   2.0000      -0.446228       -12.1425 
  56   2.0000      -0.437361       -11.9012 
  57   2.0000      -0.433515       -11.7965 
  58   2.0000      -0.356612        -9.7039 
  59   2.0000      -0.352439        -9.5904 
  60   2.0000      -0.305421        -8.3109 
  61   2.0000      -0.304175        -8.2770 
  62   0.0000       0.007539         0.2052 
  63   0.0000       0.008826         0.2402 
  64   0.0000       0.063095         1.7169 
  65   0.0000       0.065383         1.7792 
  66   0.0000       0.071012         1.9323 
  67   0.0000       0.075601         2.0572 
  68   0.0000       0.084204         2.2913 
  69   0.0000       0.085721         2.3326 
  70   0.0000       0.099981         2.7206 
  71   0.0000       0.103071         2.8047 
  72   0.0000       0.106876         2.9082 
  73   0.0000       0.108802         2.9607 
  74   0.0000       0.122480         3.3329 
  75   0.0000       0.123279         3.3546 
  76   0.0000       0.139299         3.7905 
  77   0.0000       0.143398         3.9020 
  78   0.0000       0.156475         4.2579 
  79   0.0000       0.158435         4.3112 
  80   0.0000       0.164634         4.4799 
  81   0.0000       0.164921         4.4877 
  82   0.0000       0.173376         4.7178 
  83   0.0000       0.176914         4.8141 
  84   0.0000       0.204499         5.5647 
  85   0.0000       0.205813         5.6005 
  86   0.0000       0.228645         6.2217 
  87   0.0000       0.232345         6.3224 
  88   0.0000       0.233773         6.3613 
  89   0.0000       0.235128         6.3982 
  90   0.0000       0.235626         6.4117 
  91   0.0000       0.236330         6.4309 
  92   0.0000       0.236594         6.4380 
  93   0.0000       0.237407         6.4602 
  94   0.0000       0.238607         6.4928 
  95   0.0000       0.239043         6.5047 
  96   0.0000       0.241003         6.5580 
  97   0.0000       0.241701         6.5770 
  98   0.0000       0.242410         6.5963 
  99   0.0000       0.243255         6.6193 
 100   0.0000       0.244236         6.6460 
 101   0.0000       0.244323         6.6484 
 102   0.0000       0.255749         6.9593 
 103   0.0000       0.259063         7.0495 
 104   0.0000       0.266408         7.2493 
 105   0.0000       0.267617         7.2822 
 106   0.0000       0.270089         7.3495 
 107   0.0000       0.274515         7.4699 
 108   0.0000       0.294481         8.0132 
 109   0.0000       0.307571         8.3694 
 110   0.0000       0.309824         8.4307 
 111   0.0000       0.311140         8.4665 
 112   0.0000       0.339026         9.2254 
 113   0.0000       0.340929         9.2771 
 114   0.0000       0.361952         9.8492 
 115   0.0000       0.365699         9.9512 
 116   0.0000       0.414720        11.2851 
 117   0.0000       0.420423        11.4403 
 118   0.0000       0.425022        11.5654 
 119   0.0000       0.428981        11.6732 
-------
TIMINGS
-------

Total SCF time: 0 days 0 hours 0 min 0 sec 

Total time                  ....       0.145 sec
Sum of individual times     ....       0.105 sec  ( 72.7%)

Fock matrix formation       ....       0.045 sec  ( 30.8%)
Diagonalization             ....       0.026 sec  ( 18.0%)
Density matrix formation    ....       0.007 sec  (  4.8%)
Population analysis         ....       0.000 sec  (  0.0%)
Initial guess               ....       0.004 sec  (  2.8%)
Orbital Transformation      ....       0.000 sec  (  0.0%)
Orbital Orthonormalization  ....       0.000 sec  (  0.0%)
DIIS solution               ....       0.014 sec  (  9.9%)
SOSCF solution              ....       0.009 sec  (  6.4%)

-------------------------   --------------------
FINAL SINGLE POINT ENERGY       -16.537126425593
-------------------------   --------------------


                            ***************************************
                            *     ORCA property calculations      *
                            ***************************************

                                    ---------------------
                                    Active property flags
                                    ---------------------
   (+) Dipole Moment


------------------------------------------------------------------------------
                       ORCA ELECTRIC PROPERTIES CALCULATION
------------------------------------------------------------------------------

Dipole Moment Calculation                       ... on
Quadrupole Moment Calculation                   ... off
Polarizability Calculation                      ... off
GBWName                                         ... /Users/mattyjones/GoogleDrive/Boise/Code/MorphCT/tests/output_EZ/donor_polymer/chromophores/input_orca/pair/00000-00010.gbw
Electron density file                           ... /Users/mattyjones/GoogleDrive/Boise/Code/MorphCT/tests/output_EZ/donor_polymer/chromophores/input_orca/pair/00000-00010.scfp.tmp

-------------
DIPOLE MOMENT
-------------
                                X             Y             Z
Electronic contribution:    140.93392     159.12580      94.13422
Nuclear contribution   :    -77.33646     -84.10476     -48.06320
                        -----------------------------------------
Total Dipole Moment    :     63.59747      75.02104      46.07102
                        -----------------------------------------
Magnitude (a.u.)       :    108.60632
Magnitude (Debye)      :    276.05533


Timings for individual modules:

Sum of individual times         ...        0.243 sec (=   0.004 min)
STO integral calculation        ...        0.049 sec (=   0.001 min)  20.0 %
SCF iterations                  ...        0.194 sec (=   0.003 min)  80.0 %
                             ****ORCA TERMINATED NORMALLY****
TOTAL RUN TIME: 0 days 0 hours 0 minutes 0 seconds 572 msec

