
                                 *****************
                                 * O   R   C   A *
                                 *****************

           --- An Ab Initio, DFT and Semiempirical electronic structure package ---

                  #######################################################
                  #                        -***-                        #
                  #  Department of molecular theory and spectroscopy    #
                  #              Directorship: Frank Neese              #
                  # Max Planck Institute for Chemical Energy Conversion #
                  #                  D-45470 Muelheim/Ruhr              #
                  #                       Germany                       #
                  #                                                     #
                  #                  All rights reserved                #
                  #                        -***-                        #
                  #######################################################


                         Program Version 3.0.3 - RELEASE   -


 With contributions from (in alphabetic order):
   Ute Becker             : Parallelization
   Dmytro Bykov           : SCF Hessian
   Dmitry Ganyushin       : Spin-Orbit,Spin-Spin,Magnetic field MRCI
   Andreas Hansen         : Spin unrestricted coupled pair/coupled cluster methods
   Dimitrios Liakos       : Extrapolation schemes; parallel MDCI
   Robert Izsak           : Overlap fitted RIJCOSX, COSX-SCS-MP3
   Christian Kollmar      : KDIIS, OOCD, Brueckner-CCSD(T), CCSD density
   Simone Kossmann        : Meta GGA functionals, TD-DFT gradient, OOMP2, MP2 Hessian
   Taras Petrenko         : DFT Hessian,TD-DFT gradient, ASA and ECA modules, normal mode analysis, Resonance Raman, ABS, FL, XAS/XES, NRVS
   Christoph Reimann      : Effective Core Potentials
   Michael Roemelt        : Restricted open shell CIS
   Christoph Riplinger    : Improved optimizer, TS searches, QM/MM, DLPNO-CCSD
   Barbara Sandhoefer     : DKH picture change effects
   Igor Schapiro          : Molecular dynamics
   Kantharuban Sivalingam : CASSCF convergence, NEVPT2
   Boris Wezisla          : Elementary symmetry handling
   Frank Wennmohs         : Technical directorship


 We gratefully acknowledge several colleagues who have allowed us to
 interface, adapt or use parts of their codes:
   Stefan Grimme, W. Hujo, H. Kruse, T. Risthaus : VdW corrections, initial TS optimization,
                                                   DFT functionals, gCP
   Ed Valeev                                     : LibInt (2-el integral package), F12 methods
   Garnet Chan, S. Sharma, R. Olivares           : DMRG
   Ulf Ekstrom                                   : XCFun DFT Library
   Mihaly Kallay                                 : mrcc  (arbitrary order and MRCC methods)
   Andreas Klamt, Michael Diedenhofen            : otool_cosmo (COSMO solvation model)
   Frank Weinhold                                : gennbo (NPA and NBO analysis)
   Christopher J. Cramer and Donald G. Truhlar   : smd solvation model


 Your calculation uses the libint2 library for the computation of 2-el integrals
 For citations please refer to: http://libint.valeyev.net

 This ORCA versions uses:
   CBLAS   interface :  Fast vector & matrix operations
   LAPACKE interface :  Fast linear algebra routines
   SCALAPACK package :  Parallel linear algebra routines


leaving
================================================================================
                                        WARNINGS
                       Please study these warnings very carefully!
================================================================================
Now building the actual basis set

WARNING: Direct SCF is incompatible with Method<>HF and Method<>DFT
  ===> : conventional SCF is chosen

WARNING: The NDO methods need Guess=HUECKEL or Guess=HCORE or Guess=MOREAD
  ===> : Guess is set to Hueckel

WARNING: The NDO methods need %rel::SOCType==1
  ===> : %rel::SOCType is set to 1

WARNING: The NDO methods cannot have frozencore=1
  ===> : %method FrozenCore=0 end


INFO   : the flag for use of LIBINT has been found!

================================================================================
                                       INPUT FILE
================================================================================
NAME = /Users/mattyjones/GoogleDrive/Boise/Code/MorphCT/tests/output_EZ/donor_polymer/chromophores/input_orca/pair/00012-00018.inp
|  1> # ================================================================
|  2> # Orca input file made by Matty Jones
|  3> # ================================================================
|  4> ! ZINDO/S 
|  5> ! NOPOP
|  6> ! NOMOPRINT
|  7> * xyz 0   1
|  8>  C  21.68946  1.31307  8.51524
|  9>  C  21.43907  -0.05877  8.45805
| 10>  C  21.72297  -0.75529  9.67399
| 11>  C  22.19994  0.07073  10.69650
| 12>  S  22.24467  1.59790  10.05138
| 13>  H  21.02806  -0.58631  7.53138
| 14>  C  21.49015  -2.36390  9.76201
| 15>  C  21.10582  -3.39307  11.10174
| 16>  C  19.52699  -3.63888  11.67560
| 17>  H  19.18058  -2.63033  12.12658
| 18>  H  18.86448  -3.88432  10.76192
| 19>  H  21.80717  -3.21104  11.97604
| 20>  H  21.39062  -4.44704  10.68216
| 21>  H  22.46461  -2.86265  9.34642
| 22>  H  20.62898  -2.62369  9.01459
| 23>  C  19.34501  -4.80252  12.81030
| 24>  C  18.95238  -6.34301  12.21523
| 25>  C  20.25711  -7.35152  11.88197
| 26>  H  21.20012  -6.71353  11.67877
| 27>  H  20.01481  -7.99383  10.94987
| 28>  H  20.44527  -8.04497  12.78993
| 29>  H  18.35154  -6.20371  11.24156
| 30>  H  18.28983  -6.86668  13.00031
| 31>  H  20.32301  -4.90674  13.41799
| 32>  H  18.49397  -4.49739  13.53304
| 33>  C  -21.83434  1.21679  -14.69981
| 34>  C  -21.24478  1.66643  -13.51738
| 35>  C  -22.05080  2.58553  -12.77585
| 36>  C  -23.28302  2.86305  -13.37579
| 37>  S  -23.31004  1.96920  -14.77248
| 38>  H  -20.42068  1.09038  -12.96540
| 39>  C  -21.38449  3.13021  -11.41834
| 40>  C  -19.77935  3.61286  -11.77256
| 41>  C  -18.65176  4.16363  -10.65062
| 42>  H  -18.71912  5.32036  -10.64557
| 43>  H  -17.60814  3.87003  -11.06778
| 44>  H  -19.25527  2.71491  -12.27533
| 45>  H  -19.89176  4.45827  -12.55497
| 46>  H  -21.96200  4.05202  -11.02246
| 47>  H  -21.35336  2.30134  -10.61145
| 48>  C  -18.75744  3.61573  -9.12487
| 49>  C  -19.66587  4.56073  -8.06698
| 50>  C  -21.25255  4.05449  -7.85630
| 51>  H  -21.80185  4.01877  -8.86866
| 52>  H  -21.79357  4.79847  -7.15216
| 53>  H  -21.25072  3.00127  -7.37434
| 54>  H  -19.14298  4.55195  -7.03917
| 55>  H  -19.68756  5.64066  -8.47265
| 56>  H  -17.69050  3.53245  -8.67957
| 57>  H  -19.22718  2.55653  -9.13375
| 58>  H  21.55337  2.02314  7.74008
| 59>  H  22.47528  -0.21863  11.67836
| 60>  H  -21.42499  0.53751  -15.40310
| 61>  H  -24.04112  3.50939  -13.01368
| 62> *
| 63> 
| 64>                          ****END OF INPUT****
================================================================================

                       ****************************
                       * Single Point Calculation *
                       ****************************

---------------------------------
CARTESIAN COORDINATES (ANGSTROEM)
---------------------------------
  C     21.689460    1.313070    8.515240
  C     21.439070   -0.058770    8.458050
  C     21.722970   -0.755290    9.673990
  C     22.199940    0.070730   10.696500
  S     22.244670    1.597900   10.051380
  H     21.028060   -0.586310    7.531380
  C     21.490150   -2.363900    9.762010
  C     21.105820   -3.393070   11.101740
  C     19.526990   -3.638880   11.675600
  H     19.180580   -2.630330   12.126580
  H     18.864480   -3.884320   10.761920
  H     21.807170   -3.211040   11.976040
  H     21.390620   -4.447040   10.682160
  H     22.464610   -2.862650    9.346420
  H     20.628980   -2.623690    9.014590
  C     19.345010   -4.802520   12.810300
  C     18.952380   -6.343010   12.215230
  C     20.257110   -7.351520   11.881970
  H     21.200120   -6.713530   11.678770
  H     20.014810   -7.993830   10.949870
  H     20.445270   -8.044970   12.789930
  H     18.351540   -6.203710   11.241560
  H     18.289830   -6.866680   13.000310
  H     20.323010   -4.906740   13.417990
  H     18.493970   -4.497390   13.533040
  C    -21.834340    1.216790  -14.699810
  C    -21.244780    1.666430  -13.517380
  C    -22.050800    2.585530  -12.775850
  C    -23.283020    2.863050  -13.375790
  S    -23.310040    1.969200  -14.772480
  H    -20.420680    1.090380  -12.965400
  C    -21.384490    3.130210  -11.418340
  C    -19.779350    3.612860  -11.772560
  C    -18.651760    4.163630  -10.650620
  H    -18.719120    5.320360  -10.645570
  H    -17.608140    3.870030  -11.067780
  H    -19.255270    2.714910  -12.275330
  H    -19.891760    4.458270  -12.554970
  H    -21.962000    4.052020  -11.022460
  H    -21.353360    2.301340  -10.611450
  C    -18.757440    3.615730   -9.124870
  C    -19.665870    4.560730   -8.066980
  C    -21.252550    4.054490   -7.856300
  H    -21.801850    4.018770   -8.868660
  H    -21.793570    4.798470   -7.152160
  H    -21.250720    3.001270   -7.374340
  H    -19.142980    4.551950   -7.039170
  H    -19.687560    5.640660   -8.472650
  H    -17.690500    3.532450   -8.679570
  H    -19.227180    2.556530   -9.133750
  H     21.553370    2.023140    7.740080
  H     22.475280   -0.218630   11.678360
  H    -21.424990    0.537510  -15.403100
  H    -24.041120    3.509390  -13.013680

----------------------------
CARTESIAN COORDINATES (A.U.)
----------------------------
  NO LB      ZA    FRAG    MASS        X           Y           Z
   0 C     4.0000    0    12.011         40.987139392639634          2.481342694667978         16.091471564611599
   1 C     4.0000    0    12.011         40.513970865967089         -0.111059204890552         15.983398127012643
   2 C     4.0000    0    12.011         41.050464115387335         -1.427291251689382         18.281191722292849
   3 C     4.0000    0    12.011         41.951806789483754          0.133660329452250         20.213455591488668
   4 S     6.0000    0    32.060         42.036334239454050          3.019593389392768         18.994355467973392
   5 H     1.0000    0     1.008         39.737274527664113         -1.107965329579369         14.232245610491837
   6 C     4.0000    0    12.011         40.610498076887787         -4.467123607976447         18.447525416600598
   7 C     4.0000    0    12.011         39.884219631837837         -6.411973053224181         20.979248209998914
   8 C     4.0000    0    12.011         36.900663319818946         -6.876486634203364         22.063686449210966
   9 H     1.0000    0     1.008         36.246043289767279         -4.970603341837085         22.915915141086774
  10 H     1.0000    0     1.008         35.648700858834772         -7.340301016512996         20.337081475169796
  11 H     1.0000    0     1.008         41.209579055863500         -6.067986205066497         22.631435768886266
  12 H     1.0000    0     1.008         40.422413634778600         -8.403687706593164         20.186356918728237
  13 H     1.0000    0     1.008         42.451960605348688         -5.409624517269671         17.662174132604264
  14 H     1.0000    0     1.008         38.983122622138822         -4.958055560307849         17.035106309585178
  15 C     4.0000    0    12.011         36.556770957967949         -9.075447552679490         24.207958693371410
  16 C     4.0000    0    12.011         35.814807786006455        -11.986551764723838         23.083439362858890
  17 C     4.0000    0    12.011         38.280390164717531        -13.892359468044759         22.453669231468297
  18 H     1.0000    0     1.008         40.062420806266601        -12.686733091864342         22.069676881055496
  19 H     1.0000    0     1.008         37.822509522468408        -15.106149461123719         20.692255502040297
  20 H     1.0000    0     1.008         38.635961034076153        -15.202790055612450         24.169464972023434
  21 H     1.0000    0     1.008         34.679384735701205        -11.723312914268607         21.243469718043784
  22 H     1.0000    0     1.008         34.562769735976921        -12.976144649274380         24.567025556077787
  23 H     1.0000    0     1.008         38.404923116942939         -9.272394810356763         25.356326367694013
  24 H     1.0000    0     1.008         34.948538428955615         -8.498835417436098         25.573739359401657
  25 C     4.0000    0    12.011        -41.260922914922141          2.299399862494040        -27.778615120676953
  26 C     4.0000    0    12.011        -40.146815975407527          3.149096321350392        -25.544146248144447
  27 C     4.0000    0    12.011        -41.669973033870733          4.885943611037414        -24.142857628057822
  28 C     4.0000    0    12.011        -43.998531370611182          5.410380407723239        -25.276579924842540
  29 S     6.0000    0    32.060        -44.049591770749736          3.721248702917729        -27.915941518829012
  30 H     1.0000    0     1.008        -38.589492668443029          2.060519581905054        -24.501055216742596
  31 C     4.0000    0    12.011        -40.410829613577668          5.915239641661641        -21.577535503998387
  32 C     4.0000    0    12.011        -37.377554606975309          6.827315960198733        -22.246914295155971
  33 C     4.0000    0    12.011        -35.246718315627042          7.868120422978542        -20.126754956464360
  34 H     1.0000    0     1.008        -35.374010268007979         10.054023333869271        -20.117211839488057
  35 H     1.0000    0     1.008        -33.274562327744142          7.313296830059262        -20.915073110490951
  36 H     1.0000    0     1.008        -36.387186934709860          5.130436378244146        -23.197011903507558
  37 H     1.0000    0     1.008        -37.589978721689398          8.424909331077098        -23.725454919597297
  38 H     1.0000    0     1.008        -41.502165353178526          7.657208089171590        -20.829430722101641
  39 H     1.0000    0     1.008        -40.352002439028695          4.348902341038333        -20.052734383798665
  40 C     4.0000    0    12.011        -35.446424573459844          6.832739474203088        -17.243505307634010
  41 C     4.0000    0    12.011        -37.163108485297926          8.618530670758672        -15.244382927820057
  42 C     4.0000    0    12.011        -40.161499147468099          7.661875712722376        -14.846255425925529
  43 H     1.0000    0     1.008        -41.199525712831047          7.594374695218709        -16.759338574862049
  44 H     1.0000    0     1.008        -41.183878780442171          9.067794161837108        -13.515623665986221
  45 H     1.0000    0     1.008        -40.158040948643020          5.671578353953834        -13.935483018420843
  46 H     1.0000    0     1.008        -36.174989587131847          8.601938875302841        -13.302103510114458
  47 H     1.0000    0     1.008        -37.204096645142677         10.659302614564247        -16.010988128567892
  48 H     1.0000    0     1.008        -33.430200172133901          6.675363081770125        -16.402010260198878
  49 H     1.0000    0     1.008        -36.334104527608012          4.831141553153698        -17.260286075703231
  50 H     1.0000    0     1.008         40.729966563074292          3.823180530581441         14.626631454641201
  51 H     1.0000    0     1.008         42.472123983197633         -0.413150824659203         22.068902093340586
  52 H     1.0000    0     1.008        -40.487363522001480          1.015746694244012        -29.107640613402431
  53 H     1.0000    0     1.008        -45.431132752736879          6.631785997121901        -24.592291194488315

--------------------------------
INTERNAL COORDINATES (ANGSTROEM)
--------------------------------
 C      0   0   0   0.000000     0.000     0.000
 C      1   0   0   1.395676     0.000     0.000
 C      2   1   0   1.429773   114.102     0.000
 C      3   2   1   1.398333   113.693     0.000
 S      1   2   3   1.658045   105.479     0.000
 H      2   1   3   1.142779   123.470   179.096
 C      3   2   1   1.627753   119.935   180.365
 C      7   3   2   1.732564   131.344   208.213
 C      8   7   3   1.697776   123.618    83.446
 H      9   8   7   1.157824   106.485   292.609
 H      9   8   7   1.154977   107.266    48.918
 H      8   7   3   1.135529   111.293   309.507
 H      8   7   3   1.169620   101.763   197.331
 H      7   3   2   1.170914   106.422    85.157
 H      7   3   2   1.169505   106.875   331.152
 C      9   8   7   1.635457   116.168   171.754
 C     16   9   8   1.697462   115.355   267.233
 C     17  16   9   1.682402   115.726    91.190
 H     18  17  16   1.156542   109.661   335.780
 H     18  17  16   1.157619   109.255   215.652
 H     18  17  16   1.157872   109.251    95.933
 H     17  16   9   1.152583   107.881   330.104
 H     17  16   9   1.153063   107.841   212.155
 H     16   9   8   1.156128   109.554    28.458
 H     16   9   8   1.157466   109.116   147.126
 C     11   9   8  48.277479   151.442   223.762
 C     26  11   9   1.395671    39.746   359.422
 C     27  26  11   1.429783   114.102   179.446
 C     28  27  26   1.398325   113.693     0.000
 S     26  11   9   1.658039   145.223     0.360
 H     27  26  11   1.147021   123.326   336.551
 C     28  27  26   1.607320   114.971   180.683
 C     32  28  27   1.713154   108.014    47.277
 C     33  32  28   1.683317   125.591   183.940
 H     34  33  32   1.158701   106.894   265.817
 H     34  33  32   1.161622   106.246   150.874
 H     33  32  28   1.154882   107.226   306.057
 H     33  32  28   1.157376   104.748    61.245
 H     32  28  27   1.157572   110.602   165.622
 H     32  28  27   1.157180   110.937   288.228
 C     34  33  32   1.624585   118.166    29.350
 C     41  34  33   1.684459   115.830   267.456
 C     42  41  34   1.678755   114.794    96.912
 H     43  42  41   1.152336   110.465   302.635
 H     43  42  41   1.158457   108.906   182.531
 H     43  42  41   1.158258   108.962    63.288
 H     42  41  34   1.153206   108.116   217.944
 H     42  41  34   1.153814   108.326   336.174
 H     41  34  33   1.159133   108.975   146.556
 H     41  34  33   1.158723   109.115    28.744
 H      1   2   3   1.059997   127.261   180.000
 H      4   3   2   1.059995   127.206   180.001
 H     26  11   9   1.060003    87.516   179.864
 H     29  28  27   1.059997   127.206   180.000

---------------------------
INTERNAL COORDINATES (A.U.)
---------------------------
 C      0   0   0   0.000000     0.000     0.000
 C      1   0   0   2.637445     0.000     0.000
 C      2   1   0   2.701878   114.102     0.000
 C      3   2   1   2.642467   113.693     0.000
 S      1   2   3   3.133250   105.479     0.000
 H      2   1   3   2.159540   123.470   179.096
 C      3   2   1   3.076007   119.935   180.365
 C      7   3   2   3.274071   131.344   208.213
 C      8   7   3   3.208331   123.618    83.446
 H      9   8   7   2.187970   106.485   292.609
 H      9   8   7   2.182590   107.266    48.918
 H      8   7   3   2.145840   111.293   309.507
 H      8   7   3   2.210262   101.763   197.331
 H      7   3   2   2.212706   106.422    85.157
 H      7   3   2   2.210044   106.875   331.152
 C      9   8   7   3.090565   116.168   171.754
 C     16   9   8   3.207738   115.355   267.233
 C     17  16   9   3.179278   115.726    91.190
 H     18  17  16   2.185548   109.661   335.780
 H     18  17  16   2.187583   109.255   215.652
 H     18  17  16   2.188062   109.251    95.933
 H     17  16   9   2.178065   107.881   330.104
 H     17  16   9   2.178973   107.841   212.155
 H     16   9   8   2.184766   109.554    28.458
 H     16   9   8   2.187293   109.116   147.126
 C     11   9   8  91.231214   151.442   223.762
 C     26  11   9   2.637436    39.746   359.422
 C     27  26  11   2.701899   114.102   179.446
 C     28  27  26   2.642450   113.693     0.000
 S     26  11   9   3.133239   145.223     0.360
 H     27  26  11   2.167555   123.326   336.551
 C     28  27  26   3.037395   114.971   180.683
 C     32  28  27   3.237392   108.014    47.277
 C     33  32  28   3.181008   125.591   183.940
 H     34  33  32   2.189627   106.894   265.817
 H     34  33  32   2.195148   106.246   150.874
 H     33  32  28   2.182410   107.226   306.057
 H     33  32  28   2.187124   104.748    61.245
 H     32  28  27   2.187494   110.602   165.622
 H     32  28  27   2.186754   110.937   288.228
 C     34  33  32   3.070020   118.166    29.350
 C     41  34  33   3.183166   115.830   267.456
 C     42  41  34   3.172387   114.794    96.912
 H     43  42  41   2.177600   110.465   302.635
 H     43  42  41   2.189166   108.906   182.531
 H     43  42  41   2.188790   108.962    63.288
 H     42  41  34   2.179244   108.116   217.944
 H     42  41  34   2.180393   108.326   336.174
 H     41  34  33   2.190443   108.975   146.556
 H     41  34  33   2.189669   109.115    28.744
 H      1   2   3   2.003103   127.261   180.000
 H      4   3   2   2.003101   127.206   180.001
 H     26  11   9   2.003115    87.516   179.864
 H     29  28  27   2.003105   127.206   180.000

----------------------------
SLATER BASIS SET DIM= 120
----------------------------
  0 C     2 shells
 l=0 nsto= 1
    2       1.625000000000        1.000000000000
 l=1 nsto= 1
    2       1.625000000000        1.000000000000
  1 C     2 shells
 l=0 nsto= 1
    2       1.625000000000        1.000000000000
 l=1 nsto= 1
    2       1.625000000000        1.000000000000
  2 C     2 shells
 l=0 nsto= 1
    2       1.625000000000        1.000000000000
 l=1 nsto= 1
    2       1.625000000000        1.000000000000
  3 C     2 shells
 l=0 nsto= 1
    2       1.625000000000        1.000000000000
 l=1 nsto= 1
    2       1.625000000000        1.000000000000
  4 S     2 shells
 l=0 nsto= 1
    3       1.925000000000        1.000000000000
 l=1 nsto= 1
    3       1.925000000000        1.000000000000
  5 H     1 shells
 l=0 nsto= 1
    1       1.200000000000        1.000000000000
  6 C     2 shells
 l=0 nsto= 1
    2       1.625000000000        1.000000000000
 l=1 nsto= 1
    2       1.625000000000        1.000000000000
  7 C     2 shells
 l=0 nsto= 1
    2       1.625000000000        1.000000000000
 l=1 nsto= 1
    2       1.625000000000        1.000000000000
  8 C     2 shells
 l=0 nsto= 1
    2       1.625000000000        1.000000000000
 l=1 nsto= 1
    2       1.625000000000        1.000000000000
  9 H     1 shells
 l=0 nsto= 1
    1       1.200000000000        1.000000000000
 10 H     1 shells
 l=0 nsto= 1
    1       1.200000000000        1.000000000000
 11 H     1 shells
 l=0 nsto= 1
    1       1.200000000000        1.000000000000
 12 H     1 shells
 l=0 nsto= 1
    1       1.200000000000        1.000000000000
 13 H     1 shells
 l=0 nsto= 1
    1       1.200000000000        1.000000000000
 14 H     1 shells
 l=0 nsto= 1
    1       1.200000000000        1.000000000000
 15 C     2 shells
 l=0 nsto= 1
    2       1.625000000000        1.000000000000
 l=1 nsto= 1
    2       1.625000000000        1.000000000000
 16 C     2 shells
 l=0 nsto= 1
    2       1.625000000000        1.000000000000
 l=1 nsto= 1
    2       1.625000000000        1.000000000000
 17 C     2 shells
 l=0 nsto= 1
    2       1.625000000000        1.000000000000
 l=1 nsto= 1
    2       1.625000000000        1.000000000000
 18 H     1 shells
 l=0 nsto= 1
    1       1.200000000000        1.000000000000
 19 H     1 shells
 l=0 nsto= 1
    1       1.200000000000        1.000000000000
 20 H     1 shells
 l=0 nsto= 1
    1       1.200000000000        1.000000000000
 21 H     1 shells
 l=0 nsto= 1
    1       1.200000000000        1.000000000000
 22 H     1 shells
 l=0 nsto= 1
    1       1.200000000000        1.000000000000
 23 H     1 shells
 l=0 nsto= 1
    1       1.200000000000        1.000000000000
 24 H     1 shells
 l=0 nsto= 1
    1       1.200000000000        1.000000000000
 25 C     2 shells
 l=0 nsto= 1
    2       1.625000000000        1.000000000000
 l=1 nsto= 1
    2       1.625000000000        1.000000000000
 26 C     2 shells
 l=0 nsto= 1
    2       1.625000000000        1.000000000000
 l=1 nsto= 1
    2       1.625000000000        1.000000000000
 27 C     2 shells
 l=0 nsto= 1
    2       1.625000000000        1.000000000000
 l=1 nsto= 1
    2       1.625000000000        1.000000000000
 28 C     2 shells
 l=0 nsto= 1
    2       1.625000000000        1.000000000000
 l=1 nsto= 1
    2       1.625000000000        1.000000000000
 29 S     2 shells
 l=0 nsto= 1
    3       1.925000000000        1.000000000000
 l=1 nsto= 1
    3       1.925000000000        1.000000000000
 30 H     1 shells
 l=0 nsto= 1
    1       1.200000000000        1.000000000000
 31 C     2 shells
 l=0 nsto= 1
    2       1.625000000000        1.000000000000
 l=1 nsto= 1
    2       1.625000000000        1.000000000000
 32 C     2 shells
 l=0 nsto= 1
    2       1.625000000000        1.000000000000
 l=1 nsto= 1
    2       1.625000000000        1.000000000000
 33 C     2 shells
 l=0 nsto= 1
    2       1.625000000000        1.000000000000
 l=1 nsto= 1
    2       1.625000000000        1.000000000000
 34 H     1 shells
 l=0 nsto= 1
    1       1.200000000000        1.000000000000
 35 H     1 shells
 l=0 nsto= 1
    1       1.200000000000        1.000000000000
 36 H     1 shells
 l=0 nsto= 1
    1       1.200000000000        1.000000000000
 37 H     1 shells
 l=0 nsto= 1
    1       1.200000000000        1.000000000000
 38 H     1 shells
 l=0 nsto= 1
    1       1.200000000000        1.000000000000
 39 H     1 shells
 l=0 nsto= 1
    1       1.200000000000        1.000000000000
 40 C     2 shells
 l=0 nsto= 1
    2       1.625000000000        1.000000000000
 l=1 nsto= 1
    2       1.625000000000        1.000000000000
 41 C     2 shells
 l=0 nsto= 1
    2       1.625000000000        1.000000000000
 l=1 nsto= 1
    2       1.625000000000        1.000000000000
 42 C     2 shells
 l=0 nsto= 1
    2       1.625000000000        1.000000000000
 l=1 nsto= 1
    2       1.625000000000        1.000000000000
 43 H     1 shells
 l=0 nsto= 1
    1       1.200000000000        1.000000000000
 44 H     1 shells
 l=0 nsto= 1
    1       1.200000000000        1.000000000000
 45 H     1 shells
 l=0 nsto= 1
    1       1.200000000000        1.000000000000
 46 H     1 shells
 l=0 nsto= 1
    1       1.200000000000        1.000000000000
 47 H     1 shells
 l=0 nsto= 1
    1       1.200000000000        1.000000000000
 48 H     1 shells
 l=0 nsto= 1
    1       1.200000000000        1.000000000000
 49 H     1 shells
 l=0 nsto= 1
    1       1.200000000000        1.000000000000
 50 H     1 shells
 l=0 nsto= 1
    1       1.200000000000        1.000000000000
 51 H     1 shells
 l=0 nsto= 1
    1       1.200000000000        1.000000000000
 52 H     1 shells
 l=0 nsto= 1
    1       1.200000000000        1.000000000000
 53 H     1 shells
 l=0 nsto= 1
    1       1.200000000000        1.000000000000
------------------------------------------------------------------------------
                           ORCA NDO INTEGRAL CALCULATION
------------------------------------------------------------------------------

--------------
NDO PARAMETERS
--------------

Gamma integral treatment              ... Mataga-Nishimoto
Nuclear repulsuion treatment          ... Direct (ZA*ZB/RAB)
Interaction factors:
s-s (sigma) =    1.0000
s-p (sigma) =    1.0000
s-d (sigma) =    1.0000
p-p (sigma) =    1.2670  p-p(pi) =    0.5850
p-d (sigma) =    1.0000  p-d(pi) =    1.0000
d-d (sigma) =    1.0000  d-d(pi) =    1.0000 d-d (delta) =    1.0000

fGamma parameter for Mataga-Nishimoto gamma integrals:    1.2000

--------------------------
Parameters for Element H :
--------------------------
 One-electron parameters (in eV)
  U(s)  =   -13.060000 Beta(s) =    12.000000 Neff(s) =     1.000000
 One-center electron repulsion parameters (in eV)
  G(s,s)=    12.850000
--------------------------
Parameters for Element C :
--------------------------
 One-electron parameters (in eV)
  U(s)  =   -50.870766 Beta(s) =    17.000000 Neff(s) =     2.000000
  U(p)  =   -41.599980 Beta(p) =    17.000000 Neff(p) =     2.000000 
 One-center electron repulsion parameters (in eV)
  G(s,s)=    11.110000
  G(s,p)=    11.110000 G(p,p)  =    11.110000
 Slater-Condon parameters (in eV)
 F2(p,p)=     4.5098 G1(s,p)=    6.8977
--------------------------
Parameters for Element S :
--------------------------
 One-electron parameters (in eV)
  U(s)  =   -69.509597 Beta(s) =    15.000000 Neff(s) =     2.000000
  U(p)  =   -60.725746 Beta(p) =    15.000000 Neff(p) =     4.000000 
 One-center electron repulsion parameters (in eV)
  G(s,s)=    10.090000
  G(s,p)=    10.090000 G(p,p)  =    10.090000
 Slater-Condon parameters (in eV)
 F2(p,p)=     4.5377 G1(s,p)=    3.0756

 Number of atoms                    ....   54
 Number of basis functions          ....  120

 Overlap integrals                  .... done
 One electron matrix                .... done
 Nuclear repulsion                  .... done
 Integral list                      .... done
 Electron-electron repulsion        .... done
-------------------------------------------------------------------------------
                                 ORCA SCF
-------------------------------------------------------------------------------

------------
SCF SETTINGS
------------
Hamiltonian:
 ZDO-Hamiltonian        Method          .... INDO


General Settings:
 Integral files         IntName         .... /Users/mattyjones/GoogleDrive/Boise/Code/MorphCT/tests/output_EZ/donor_polymer/chromophores/input_orca/pair/00012-00018
 Hartree-Fock type      HFTyp           .... RHF
 Total Charge           Charge          ....    0
 Multiplicity           Mult            ....    1
 Number of Electrons    NEL             ....  124
 Basis Dimension        Dim             ....  120
 Nuclear Repulsion      ENuc            ....    635.9352077741 Eh

Convergence Acceleration:
 DIIS                   CNVDIIS         .... on
   Start iteration      DIISMaxIt       ....    12
   Startup error        DIISStart       ....  0.200000
   # of expansion vecs  DIISMaxEq       ....     5
   Bias factor          DIISBfac        ....   1.050
   Max. coefficient     DIISMaxC        ....  10.000
 Newton-Raphson         CNVNR           .... off
 SOSCF                  CNVSOSCF        .... on
   Start iteration      SOSCFMaxIt      ....   150
   Startup grad/error   SOSCFStart      ....  0.003300
 Level Shifting         CNVShift        .... on
   Level shift para.    LevelShift      ....    0.2500
   Turn off err/grad.   ShiftErr        ....    0.0010
 Zerner damping         CNVZerner       .... off
 Static damping         CNVDamp         .... on
   Fraction old density DampFac         ....    0.7000
   Max. Damping (<1)    DampMax         ....    0.9800
   Min. Damping (>=0)   DampMin         ....    0.0000
   Turn off err/grad.   DampErr         ....    0.1000
 Fernandez-Rico         CNVRico         .... off

SCF Procedure:
 Maximum # iterations   MaxIter         ....   125
 SCF integral mode      SCFMode         .... Conventional
 Integral Buffer length BufferLength    .... 1048576
 Integral index format  IndFormat       ....     0
 Integral value format  ValFormat       ....     0
 Integral Storage       Thresh          ....  1.000e-08 Eh

Convergence Tolerance:
 Convergence Check Mode ConvCheckMode   .... Total+1el-Energy
 Energy Change          TolE            ....  1.000e-06 Eh
 1-El. energy change                    ....  1.000e-03 Eh
 Orbital Gradient       TolG            ....  5.000e-05
 Orbital Rotation angle TolX            ....  5.000e-05
 DIIS Error             TolErr          ....  1.000e-06


Diagonalization of the overlap matrix:
Smallest eigenvalue                        ... 1.694e-01
Time for diagonalization                   ...    0.003 sec
Threshold for overlap eigenvalues          ... 1.000e-08
Number of eigenvalues below threshold      ... 0
Time for construction of square roots      ...    0.001 sec
Total time needed                          ...    0.004 sec

-------------------------------
INITIAL GUESS: EXTENDED HUECKEL
-------------------------------
EHT matrix was read from disk
EHT matrix was diagonalized
Initial density was built
                      ------------------
                      INITIAL GUESS DONE
                      ------------------

 InCore treatment chosen:
   Memory dedicated               ...    1024 MB
   Memory needed                  ...      0 MB
   Number of tiny    integrals    ...       0
   Number of small   integrals    ...       0
   Number of regular integrals    ...    7392

--------------
SCF ITERATIONS
--------------
ITER       Energy         Delta-E        Max-DP      RMS-DP      [F,P]     Damp
  0    -19.1713126230   0.000000000000 0.04366906  0.00145056  0.1037641 0.7000
  1    -19.2132049980  -0.041892374936 0.04285849  0.00136667  0.0711558 0.7000
                               ***Turning on DIIS***
  2    -19.2441997279  -0.030994729956 0.11372792  0.00350887  0.0433146 0.0000
  3    -19.3258025703  -0.081602842315 0.02022755  0.00073244  0.0200822 0.0000
  4    -19.3103779549   0.015424615312 0.01505166  0.00050341  0.0083419 0.0000
  5    -19.3275928832  -0.017214928245 0.01061447  0.00034043  0.0049575 0.0000
  6    -19.3296461795  -0.002053296317 0.00775472  0.00024178  0.0028371 0.0000
                      *** Initiating the SOSCF procedure ***
                           *** Shutting down DIIS ***
                      *** Re-Reading the Fockian *** 
                      *** Removing any level shift *** 
ITER      Energy       Delta-E        Grad      Rot      Max-DP    RMS-DP
  7    -19.32572086   0.0039253171  0.003054  0.003054  0.004643  0.000137
  8    -19.32372423   0.0019966345  0.000840  0.002345  0.002292  0.000064
  9    -19.32373930  -0.0000150693  0.000371  0.002308  0.002568  0.000068
 10    -19.32374488  -0.0000055798  0.000032  0.000076  0.000138  0.000004
                 **** Energy Check signals convergence ****
              ***Rediagonalizing the Fockian in SOSCF/NRSCF***

               *****************************************************
               *                     SUCCESS                       *
               *           SCF CONVERGED AFTER  11 CYCLES          *
               *****************************************************


----------------
TOTAL SCF ENERGY
----------------

Total Energy       :          -19.32374493 Eh            -525.82583 eV

Components:
Nuclear Repulsion  :          635.93520777 Eh           17304.67676 eV
Electronic Energy  :         -655.25895270 Eh          -17830.50259 eV

One Electron Energy:        -1220.10683575 Eh          -33200.79490 eV
Two Electron Energy:          564.84788305 Eh           15370.29231 eV


---------------
SCF CONVERGENCE
---------------

  Last Energy change         ...   -5.1233e-08  Tolerance :   1.0000e-06
  Last MAX-Density change    ...    5.4784e-05  Tolerance :   1.0000e-05
  Last RMS-Density change    ...    1.4317e-06  Tolerance :   1.0000e-06
  Last Orbital Gradient      ...    1.1835e-05  Tolerance :   5.0000e-05
  Last Orbital Rotation      ...    2.6220e-05  Tolerance :   5.0000e-05

             **** THE GBW FILE WAS UPDATED (/Users/mattyjones/GoogleDrive/Boise/Code/MorphCT/tests/output_EZ/donor_polymer/chromophores/input_orca/pair/00012-00018.gbw) ****
             **** DENSITY FILE WAS UPDATED (/Users/mattyjones/GoogleDrive/Boise/Code/MorphCT/tests/output_EZ/donor_polymer/chromophores/input_orca/pair/00012-00018.scfp.tmp) ****
             **** ENERGY FILE WAS UPDATED (/Users/mattyjones/GoogleDrive/Boise/Code/MorphCT/tests/output_EZ/donor_polymer/chromophores/input_orca/pair/00012-00018.en.tmp) ****
----------------
ORBITAL ENERGIES
----------------

  NO   OCC          E(Eh)            E(eV) 
   0   2.0000      -1.564592       -42.5747 
   1   2.0000      -1.554657       -42.3044 
   2   2.0000      -1.407166       -38.2909 
   3   2.0000      -1.397500       -38.0279 
   4   2.0000      -1.284241       -34.9460 
   5   2.0000      -1.275817       -34.7167 
   6   2.0000      -1.196132       -32.5484 
   7   2.0000      -1.179185       -32.0872 
   8   2.0000      -1.119772       -30.4705 
   9   2.0000      -1.111852       -30.2550 
  10   2.0000      -1.061125       -28.8747 
  11   2.0000      -1.039161       -28.2770 
  12   2.0000      -0.960878       -26.1468 
  13   2.0000      -0.949904       -25.8482 
  14   2.0000      -0.913413       -24.8552 
  15   2.0000      -0.877679       -23.8829 
  16   2.0000      -0.863892       -23.5077 
  17   2.0000      -0.851104       -23.1597 
  18   2.0000      -0.839809       -22.8524 
  19   2.0000      -0.831178       -22.6175 
  20   2.0000      -0.785639       -21.3783 
  21   2.0000      -0.769577       -20.9413 
  22   2.0000      -0.742014       -20.1912 
  23   2.0000      -0.713350       -19.4112 
  24   2.0000      -0.706452       -19.2235 
  25   2.0000      -0.687173       -18.6989 
  26   2.0000      -0.677103       -18.4249 
  27   2.0000      -0.667599       -18.1663 
  28   2.0000      -0.650359       -17.6972 
  29   2.0000      -0.626254       -17.0412 
  30   2.0000      -0.613060       -16.6822 
  31   2.0000      -0.608652       -16.5623 
  32   2.0000      -0.601604       -16.3705 
  33   2.0000      -0.599383       -16.3100 
  34   2.0000      -0.576854       -15.6970 
  35   2.0000      -0.575821       -15.6689 
  36   2.0000      -0.574294       -15.6273 
  37   2.0000      -0.557431       -15.1685 
  38   2.0000      -0.555126       -15.1057 
  39   2.0000      -0.553257       -15.0549 
  40   2.0000      -0.542987       -14.7754 
  41   2.0000      -0.526902       -14.3377 
  42   2.0000      -0.524075       -14.2608 
  43   2.0000      -0.516657       -14.0589 
  44   2.0000      -0.508067       -13.8252 
  45   2.0000      -0.505033       -13.7426 
  46   2.0000      -0.496493       -13.5103 
  47   2.0000      -0.490279       -13.3412 
  48   2.0000      -0.487264       -13.2591 
  49   2.0000      -0.482466       -13.1286 
  50   2.0000      -0.478067       -13.0089 
  51   2.0000      -0.477758       -13.0005 
  52   2.0000      -0.472088       -12.8462 
  53   2.0000      -0.470984       -12.8161 
  54   2.0000      -0.459625       -12.5070 
  55   2.0000      -0.456750       -12.4288 
  56   2.0000      -0.435656       -11.8548 
  57   2.0000      -0.435220       -11.8429 
  58   2.0000      -0.357476        -9.7274 
  59   2.0000      -0.351039        -9.5523 
  60   2.0000      -0.305576        -8.3151 
  61   2.0000      -0.305038        -8.3005 
  62   0.0000       0.007121         0.1938 
  63   0.0000       0.007240         0.1970 
  64   0.0000       0.059745         1.6257 
  65   0.0000       0.066614         1.8127 
  66   0.0000       0.073838         2.0092 
  67   0.0000       0.076400         2.0789 
  68   0.0000       0.086486         2.3534 
  69   0.0000       0.087375         2.3776 
  70   0.0000       0.103318         2.8114 
  71   0.0000       0.106747         2.9047 
  72   0.0000       0.106900         2.9089 
  73   0.0000       0.107669         2.9298 
  74   0.0000       0.123467         3.3597 
  75   0.0000       0.125484         3.4146 
  76   0.0000       0.141565         3.8522 
  77   0.0000       0.141588         3.8528 
  78   0.0000       0.159735         4.3466 
  79   0.0000       0.160220         4.3598 
  80   0.0000       0.165345         4.4993 
  81   0.0000       0.166277         4.5246 
  82   0.0000       0.170601         4.6423 
  83   0.0000       0.173160         4.7119 
  84   0.0000       0.201409         5.4806 
  85   0.0000       0.203048         5.5252 
  86   0.0000       0.228483         6.2174 
  87   0.0000       0.232853         6.3363 
  88   0.0000       0.233707         6.3595 
  89   0.0000       0.234343         6.3768 
  90   0.0000       0.235689         6.4134 
  91   0.0000       0.236707         6.4411 
  92   0.0000       0.237837         6.4719 
  93   0.0000       0.239726         6.5233 
  94   0.0000       0.240016         6.5312 
  95   0.0000       0.241801         6.5797 
  96   0.0000       0.242326         6.5940 
  97   0.0000       0.243969         6.6387 
  98   0.0000       0.244519         6.6537 
  99   0.0000       0.245925         6.6920 
 100   0.0000       0.247161         6.7256 
 101   0.0000       0.254181         6.9166 
 102   0.0000       0.257291         7.0012 
 103   0.0000       0.260104         7.0778 
 104   0.0000       0.266303         7.2465 
 105   0.0000       0.267055         7.2669 
 106   0.0000       0.277628         7.5546 
 107   0.0000       0.283470         7.7136 
 108   0.0000       0.304413         8.2835 
 109   0.0000       0.309945         8.4340 
 110   0.0000       0.310062         8.4372 
 111   0.0000       0.312249         8.4967 
 112   0.0000       0.337676         9.1886 
 113   0.0000       0.338164         9.2019 
 114   0.0000       0.352683         9.5970 
 115   0.0000       0.353253         9.6125 
 116   0.0000       0.413973        11.2648 
 117   0.0000       0.420393        11.4395 
 118   0.0000       0.425191        11.5700 
 119   0.0000       0.430176        11.7057 
-------
TIMINGS
-------

Total SCF time: 0 days 0 hours 0 min 0 sec 

Total time                  ....       0.140 sec
Sum of individual times     ....       0.111 sec  ( 79.3%)

Fock matrix formation       ....       0.054 sec  ( 38.9%)
Diagonalization             ....       0.026 sec  ( 18.9%)
Density matrix formation    ....       0.006 sec  (  3.9%)
Population analysis         ....       0.000 sec  (  0.0%)
Initial guess               ....       0.003 sec  (  2.1%)
Orbital Transformation      ....       0.000 sec  (  0.0%)
Orbital Orthonormalization  ....       0.000 sec  (  0.0%)
DIIS solution               ....       0.015 sec  ( 10.6%)
SOSCF solution              ....       0.007 sec  (  5.0%)

-------------------------   --------------------
FINAL SINGLE POINT ENERGY       -19.323744928226
-------------------------   --------------------


                            ***************************************
                            *     ORCA property calculations      *
                            ***************************************

                                    ---------------------
                                    Active property flags
                                    ---------------------
   (+) Dipole Moment


------------------------------------------------------------------------------
                       ORCA ELECTRIC PROPERTIES CALCULATION
------------------------------------------------------------------------------

Dipole Moment Calculation                       ... on
Quadrupole Moment Calculation                   ... off
Polarizability Calculation                      ... off
GBWName                                         ... /Users/mattyjones/GoogleDrive/Boise/Code/MorphCT/tests/output_EZ/donor_polymer/chromophores/input_orca/pair/00012-00018.gbw
Electron density file                           ... /Users/mattyjones/GoogleDrive/Boise/Code/MorphCT/tests/output_EZ/donor_polymer/chromophores/input_orca/pair/00012-00018.scfp.tmp

-------------
DIPOLE MOMENT
-------------
                                X             Y             Z
Electronic contribution:    -21.01145      95.33354    -127.79115
Nuclear contribution   :     13.31353     -51.66092      70.32511
                        -----------------------------------------
Total Dipole Moment    :     -7.69792      43.67263     -57.46604
                        -----------------------------------------
Magnitude (a.u.)       :     72.58720
Magnitude (Debye)      :    184.50201


Timings for individual modules:

Sum of individual times         ...        0.235 sec (=   0.004 min)
STO integral calculation        ...        0.051 sec (=   0.001 min)  21.8 %
SCF iterations                  ...        0.184 sec (=   0.003 min)  78.2 %
                             ****ORCA TERMINATED NORMALLY****
TOTAL RUN TIME: 0 days 0 hours 0 minutes 0 seconds 540 msec

