
                                 *****************
                                 * O   R   C   A *
                                 *****************

           --- An Ab Initio, DFT and Semiempirical electronic structure package ---

                  #######################################################
                  #                        -***-                        #
                  #  Department of molecular theory and spectroscopy    #
                  #              Directorship: Frank Neese              #
                  # Max Planck Institute for Chemical Energy Conversion #
                  #                  D-45470 Muelheim/Ruhr              #
                  #                       Germany                       #
                  #                                                     #
                  #                  All rights reserved                #
                  #                        -***-                        #
                  #######################################################


                         Program Version 3.0.3 - RELEASE   -


 With contributions from (in alphabetic order):
   Ute Becker             : Parallelization
   Dmytro Bykov           : SCF Hessian
   Dmitry Ganyushin       : Spin-Orbit,Spin-Spin,Magnetic field MRCI
   Andreas Hansen         : Spin unrestricted coupled pair/coupled cluster methods
   Dimitrios Liakos       : Extrapolation schemes; parallel MDCI
   Robert Izsak           : Overlap fitted RIJCOSX, COSX-SCS-MP3
   Christian Kollmar      : KDIIS, OOCD, Brueckner-CCSD(T), CCSD density
   Simone Kossmann        : Meta GGA functionals, TD-DFT gradient, OOMP2, MP2 Hessian
   Taras Petrenko         : DFT Hessian,TD-DFT gradient, ASA and ECA modules, normal mode analysis, Resonance Raman, ABS, FL, XAS/XES, NRVS
   Christoph Reimann      : Effective Core Potentials
   Michael Roemelt        : Restricted open shell CIS
   Christoph Riplinger    : Improved optimizer, TS searches, QM/MM, DLPNO-CCSD
   Barbara Sandhoefer     : DKH picture change effects
   Igor Schapiro          : Molecular dynamics
   Kantharuban Sivalingam : CASSCF convergence, NEVPT2
   Boris Wezisla          : Elementary symmetry handling
   Frank Wennmohs         : Technical directorship


 We gratefully acknowledge several colleagues who have allowed us to
 interface, adapt or use parts of their codes:
   Stefan Grimme, W. Hujo, H. Kruse, T. Risthaus : VdW corrections, initial TS optimization,
                                                   DFT functionals, gCP
   Ed Valeev                                     : LibInt (2-el integral package), F12 methods
   Garnet Chan, S. Sharma, R. Olivares           : DMRG
   Ulf Ekstrom                                   : XCFun DFT Library
   Mihaly Kallay                                 : mrcc  (arbitrary order and MRCC methods)
   Andreas Klamt, Michael Diedenhofen            : otool_cosmo (COSMO solvation model)
   Frank Weinhold                                : gennbo (NPA and NBO analysis)
   Christopher J. Cramer and Donald G. Truhlar   : smd solvation model


 Your calculation uses the libint2 library for the computation of 2-el integrals
 For citations please refer to: http://libint.valeyev.net

 This ORCA versions uses:
   CBLAS   interface :  Fast vector & matrix operations
   LAPACKE interface :  Fast linear algebra routines
   SCALAPACK package :  Parallel linear algebra routines


leaving
================================================================================
                                        WARNINGS
                       Please study these warnings very carefully!
================================================================================
Now building the actual basis set

WARNING: Direct SCF is incompatible with Method<>HF and Method<>DFT
  ===> : conventional SCF is chosen

WARNING: The NDO methods need Guess=HUECKEL or Guess=HCORE or Guess=MOREAD
  ===> : Guess is set to Hueckel

WARNING: The NDO methods need %rel::SOCType==1
  ===> : %rel::SOCType is set to 1

WARNING: The NDO methods cannot have frozencore=1
  ===> : %method FrozenCore=0 end


INFO   : the flag for use of LIBINT has been found!

================================================================================
                                       INPUT FILE
================================================================================
NAME = /Users/mattyjones/GoogleDrive/Boise/Code/MorphCT/tests/output_EZ/donor_polymer/chromophores/input_orca/pair/00014-00020.inp
|  1> # ================================================================
|  2> # Orca input file made by Matty Jones
|  3> # ================================================================
|  4> ! ZINDO/S 
|  5> ! NOPOP
|  6> ! NOMOPRINT
|  7> * xyz 0   1
|  8>  C  -17.05898  -4.67716  11.39843
|  9>  C  -17.78277  -5.68865  12.03162
| 10>  C  -16.97305  -6.62964  12.74094
| 11>  C  -15.60297  -6.35983  12.66749
| 12>  S  -15.46743  -4.99047  11.74181
| 13>  H  -18.92099  -5.76915  12.00016
| 14>  C  -17.54372  -7.91012  13.55888
| 15>  C  -18.87723  -7.80128  14.62823
| 16>  C  -19.25934  -9.25272  15.46251
| 17>  H  -19.56782  -8.87622  16.52070
| 18>  H  -18.23730  -9.79325  15.56536
| 19>  H  -19.79673  -7.51147  14.00083
| 20>  H  -18.65047  -6.98850  15.40563
| 21>  H  -16.67983  -8.33785  14.22251
| 22>  H  -17.83474  -8.73782  12.79685
| 23>  C  -20.35881  -10.40243  15.06859
| 24>  C  -20.02710  -11.85437  15.90324
| 25>  C  -21.07598  -13.16053  15.72452
| 26>  H  -21.11109  -13.48434  14.61531
| 27>  H  -22.13326  -12.85266  16.07830
| 28>  H  -20.69258  -14.04147  16.37262
| 29>  H  -18.99422  -12.20875  15.52529
| 30>  H  -19.95684  -11.60804  17.02622
| 31>  H  -20.35416  -10.61049  13.93759
| 32>  H  -21.41433  -10.06067  15.39335
| 33>  C  16.44403  4.46631  -14.29138
| 34>  C  17.31602  5.54567  -14.14128
| 35>  C  16.75834  6.65190  -13.42747
| 36>  C  15.43934  6.44501  -13.01184
| 37>  S  15.03817  4.92564  -13.54193
| 38>  H  18.40919  5.54657  -14.46747
| 39>  C  17.84366  7.86003  -13.29481
| 40>  C  17.73296  9.49207  -13.76270
| 41>  C  19.29501  10.15185  -13.48760
| 42>  H  19.35398  10.34930  -12.34831
| 43>  H  20.06088  9.32361  -13.75146
| 44>  H  17.47440  9.56550  -14.87576
| 45>  H  16.96399  10.04207  -13.11787
| 46>  H  18.09379  7.94290  -12.14884
| 47>  H  18.83506  7.51539  -13.81517
| 48>  C  19.75765  11.50728  -14.26952
| 49>  C  20.54794  11.26132  -15.75732
| 50>  C  22.22968  11.13030  -15.70921
| 51>  H  22.59050  11.13006  -14.61067
| 52>  H  22.69956  12.02588  -16.27262
| 53>  H  22.55039  10.14330  -16.22264
| 54>  H  20.13013  10.29353  -16.22202
| 55>  H  20.28795  12.15533  -16.43735
| 56>  H  18.82898  12.16103  -14.48235
| 57>  H  20.48730  12.10264  -13.59768
| 58>  H  -17.44529  -3.87730  10.81999
| 59>  H  -14.81581  -6.91442  13.11068
| 60>  H  16.63935  3.54680  -14.78122
| 61>  H  14.82459  7.11832  -12.47116
| 62> *
| 63> 
| 64>                          ****END OF INPUT****
================================================================================

                       ****************************
                       * Single Point Calculation *
                       ****************************

---------------------------------
CARTESIAN COORDINATES (ANGSTROEM)
---------------------------------
  C    -17.058980   -4.677160   11.398430
  C    -17.782770   -5.688650   12.031620
  C    -16.973050   -6.629640   12.740940
  C    -15.602970   -6.359830   12.667490
  S    -15.467430   -4.990470   11.741810
  H    -18.920990   -5.769150   12.000160
  C    -17.543720   -7.910120   13.558880
  C    -18.877230   -7.801280   14.628230
  C    -19.259340   -9.252720   15.462510
  H    -19.567820   -8.876220   16.520700
  H    -18.237300   -9.793250   15.565360
  H    -19.796730   -7.511470   14.000830
  H    -18.650470   -6.988500   15.405630
  H    -16.679830   -8.337850   14.222510
  H    -17.834740   -8.737820   12.796850
  C    -20.358810  -10.402430   15.068590
  C    -20.027100  -11.854370   15.903240
  C    -21.075980  -13.160530   15.724520
  H    -21.111090  -13.484340   14.615310
  H    -22.133260  -12.852660   16.078300
  H    -20.692580  -14.041470   16.372620
  H    -18.994220  -12.208750   15.525290
  H    -19.956840  -11.608040   17.026220
  H    -20.354160  -10.610490   13.937590
  H    -21.414330  -10.060670   15.393350
  C     16.444030    4.466310  -14.291380
  C     17.316020    5.545670  -14.141280
  C     16.758340    6.651900  -13.427470
  C     15.439340    6.445010  -13.011840
  S     15.038170    4.925640  -13.541930
  H     18.409190    5.546570  -14.467470
  C     17.843660    7.860030  -13.294810
  C     17.732960    9.492070  -13.762700
  C     19.295010   10.151850  -13.487600
  H     19.353980   10.349300  -12.348310
  H     20.060880    9.323610  -13.751460
  H     17.474400    9.565500  -14.875760
  H     16.963990   10.042070  -13.117870
  H     18.093790    7.942900  -12.148840
  H     18.835060    7.515390  -13.815170
  C     19.757650   11.507280  -14.269520
  C     20.547940   11.261320  -15.757320
  C     22.229680   11.130300  -15.709210
  H     22.590500   11.130060  -14.610670
  H     22.699560   12.025880  -16.272620
  H     22.550390   10.143300  -16.222640
  H     20.130130   10.293530  -16.222020
  H     20.287950   12.155330  -16.437350
  H     18.828980   12.161030  -14.482350
  H     20.487300   12.102640  -13.597680
  H    -17.445290   -3.877300   10.819990
  H    -14.815810   -6.914420   13.110680
  H     16.639350    3.546800  -14.781220
  H     14.824590    7.118320  -12.471160

----------------------------
CARTESIAN COORDINATES (A.U.)
----------------------------
  NO LB      ZA    FRAG    MASS        X           Y           Z
   0 C     4.0000    0    12.011        -32.236800324039947         -8.838551484531122         21.539911056672011
   1 C     4.0000    0    12.011        -33.604565202510813        -10.749990571731129         22.736466747409612
   2 C     4.0000    0    12.011        -32.074416157352104        -12.528203966489688         24.076887288722631
   3 C     4.0000    0    12.011        -29.485340175789272        -12.018336958296393         23.938086904186118
   4 S     6.0000    0    32.060        -29.229206695597586         -9.430621579549989         22.188805216537890
   5 H     1.0000    0     1.008        -35.755489282662666        -10.902113525511789         22.677015963236446
   6 C     4.0000    0    12.011        -33.152826170196938        -14.947960486453171         25.622569882702180
   7 C     4.0000    0    12.011        -35.672794867042271        -14.742282694037183         27.643348524010872
   8 C     4.0000    0    12.011        -36.394878120074921        -17.485106793855845         29.219909243018694
   9 H     1.0000    0     1.008        -36.977820837866950        -16.773624904434492         31.219598540672823
  10 H     1.0000    0     1.008        -34.463502422162044        -18.506560461024300         29.414267575892495
  11 H     1.0000    0     1.008        -37.410398047182859        -14.194621163165465         26.457734347588680
  12 H     1.0000    0     1.008        -35.244280568914284        -13.206351086908667         29.112421620521253
  13 H     1.0000    0     1.008        -31.520310660363709        -15.756253045715308         26.876648836956342
  14 H     1.0000    0     1.008        -33.702774269690707        -16.512086807499792         24.182541876870168
  15 C     4.0000    0    12.011        -38.472575312537316        -19.657743827286446         28.475508324344435
  16 C     4.0000    0    12.011        -37.845734256654303        -22.401512790172067         30.052768242021806
  17 C     4.0000    0    12.011        -39.827830204001621        -24.869797477254650         29.715036387367402
  18 H     1.0000    0     1.008        -39.894178488563597        -25.481709696679690         27.618933262360606
  19 H     1.0000    0     1.008        -41.825799850873885        -24.288007492404315         30.383583699026058
  20 H     1.0000    0     1.008        -39.103309204256213        -26.534532817671238         30.939767894761765
  21 H     1.0000    0     1.008        -35.893873927449711        -23.071193937511083         29.338546249706269
  22 H     1.0000    0     1.008        -37.712962098484994        -21.936016551603249         32.174892895892690
  23 H     1.0000    0     1.008        -38.463788086014581        -20.050920246710103         26.338228066879498
  24 H     1.0000    0     1.008        -40.467219041413877        -19.011911023757520         29.089215783596700
  25 C     4.0000    0    12.011         31.074713237985083          8.440102729193825        -27.006794275799496
  26 C     4.0000    0    12.011         32.722535529503077         10.479797529103068        -26.723146383097919
  27 C     4.0000    0    12.011         31.668673059137870         12.570269270230774        -25.374240971443587
  28 C     4.0000    0    12.011         29.176124288495735         12.179303830383805        -24.588814098401897
  29 S     6.0000    0    32.060         28.418022855350547          9.308110634287873        -25.590539024732216
  30 H     1.0000    0     1.008         34.788327447321763         10.481498282623598        -27.339556150721691
  31 C     4.0000    0    12.011         33.719630626805284         14.853304104405057        -25.123549902517595
  32 C     4.0000    0    12.011         33.510437943780197         17.937412744009894        -26.007733863318013
  33 C     4.0000    0    12.011         36.462284651271894         19.184216252648458        -25.487870203876273
  34 H     1.0000    0     1.008         36.573721801389226         19.557342677791208        -23.334924116761130
  35 H     1.0000    0     1.008         37.909569205458162         17.619069479489522        -25.986493341572736
  36 H     1.0000    0     1.008         33.021830354593519         18.076175334023734        -28.111112433940399
  37 H     1.0000    0     1.008         32.057295238578774         18.976762117666585        -24.789181760381570
  38 H     1.0000    0     1.008         34.192307824682999         15.009905709123110        -22.957980444827857
  39 H     1.0000    0     1.008         35.593105115974808         14.202028889610435        -26.106887793564859
  40 C     4.0000    0    12.011         37.336547549869223         21.745607746349339        -26.965484862511978
  41 C     4.0000    0    12.011         38.829979216245846         21.280810706450069        -29.777019404560019
  42 C     4.0000    0    12.011         42.008007244706569         21.033218788383707        -29.686104680257067
  43 H     1.0000    0     1.008         42.689858228348037         21.032765254111567        -27.610164933099217
  44 H     1.0000    0     1.008         42.895951760513491         22.725619719400903        -30.750795281369637
  45 H     1.0000    0     1.008         42.614061313116451         19.168059094203432        -30.656346769196251
  46 H     1.0000    0     1.008         38.040432740232205         19.451952651302424        -30.655175138993226
  47 H     1.0000    0     1.008         38.338669318687657         22.970244767437006        -31.062089867410485
  48 H     1.0000    0     1.008         35.581615581080570         22.981016206400358        -27.367675275594440
  49 H     1.0000    0     1.008         38.715386223484863         22.870675097440696        -25.695891256698324
  50 H     1.0000    0     1.008        -32.966820426835071         -7.327035139052869         20.446817871766605
  51 H     1.0000    0     1.008        -27.997823352211821        -13.066360174907780         24.775594629478675
  52 H     1.0000    0     1.008         31.443814546462580          6.702480651791896        -27.932457725239484
  53 H     1.0000    0     1.008         28.014415147667648         13.451675333614324        -23.567076972313355

--------------------------------
INTERNAL COORDINATES (ANGSTROEM)
--------------------------------
 C      0   0   0   0.000000     0.000     0.000
 C      1   0   0   1.395677     0.000     0.000
 C      2   1   0   1.429770   114.101     0.000
 C      3   2   1   1.398325   113.693     0.000
 S      1   2   3   1.658042   105.479     0.000
 H      2   1   3   1.141497   123.760   179.713
 C      3   2   1   1.623059   124.758   180.413
 C      7   3   2   1.712777   122.564   313.872
 C      8   7   3   1.717181   115.016   183.487
 H      9   8   7   1.164765   103.127   142.263
 H      9   8   7   1.160740   103.930    30.014
 H      8   7   3   1.150261   107.328    63.983
 H      8   7   3   1.147337   108.311   304.746
 H      7   3   2   1.170326   108.334   192.773
 H      7   3   2   1.162097   108.633    76.591
 C      9   8   7   1.638853   128.717   264.873
 C     16   9   8   1.707279   110.411   161.876
 C     17  16   9   1.684679   119.113   176.658
 H     18  17  16   1.156042   109.747    60.801
 H     18  17  16   1.156627   109.287   300.227
 H     18  17  16   1.158915   108.908   180.652
 H     17  16   9   1.155540   105.937   296.468
 H     17  16   9   1.151824   107.855    53.372
 H     16   9   8   1.149988   111.137    40.747
 H     16   9   8   1.156024   109.733   279.515
 C      5   1   2  42.255165   123.713   148.733
 C     26   5   1   1.395677   125.356   103.180
 C     27  26   5   1.429782   114.101   333.334
 C     28  27  26   1.398325   113.693     0.000
 S     26   5   1   1.658042    31.038    46.161
 H     27  26   5   1.140799   124.649   148.330
 C     28  27  26   1.629447   110.763   179.779
 C     32  28  27   1.701391   130.202   124.200
 C     33  32  28   1.717845   105.380   186.085
 H     34  33  32   1.157776   105.629   281.290
 H     34  33  32   1.158516   106.862    36.360
 H     33  32  28   1.145054   110.092   304.254
 H     33  32  28   1.144387   110.474    67.733
 H     32  28  27   1.175874   105.860   246.322
 H     32  28  27   1.171506   108.022   359.372
 C     34  33  32   1.631755   120.007   158.620
 C     41  34  33   1.702529   115.490   269.162
 C     42  41  34   1.687522   116.673   269.204
 H     43  42  41   1.156279   109.760     5.477
 H     43  42  41   1.157705   109.302   245.215
 H     43  42  41   1.157858   109.243   125.614
 H     42  41  34   1.152011   107.789    30.726
 H     42  41  34   1.152948   107.381   148.467
 H     41  34  33   1.155471   109.291    29.944
 H     41  34  33   1.156811   109.150   148.858
 H      1   2   3   1.060002   127.261   180.001
 H      4   3   2   1.060004   127.206   180.000
 H     26   5   1   1.059996   103.281   261.649
 H     29  28  27   1.059999   127.206   180.000

---------------------------
INTERNAL COORDINATES (A.U.)
---------------------------
 C      0   0   0   0.000000     0.000     0.000
 C      1   0   0   2.637447     0.000     0.000
 C      2   1   0   2.701875   114.101     0.000
 C      3   2   1   2.642450   113.693     0.000
 S      1   2   3   3.133246   105.479     0.000
 H      2   1   3   2.157116   123.760   179.713
 C      3   2   1   3.067136   124.758   180.413
 C      7   3   2   3.236679   122.564   313.872
 C      8   7   3   3.245001   115.016   183.487
 H      9   8   7   2.201087   103.127   142.263
 H      9   8   7   2.193480   103.930    30.014
 H      8   7   3   2.173679   107.328    63.983
 H      8   7   3   2.168153   108.311   304.746
 H      7   3   2   2.211596   108.334   192.773
 H      7   3   2   2.196045   108.633    76.591
 C      9   8   7   3.096984   128.717   264.873
 C     16   9   8   3.226290   110.411   161.876
 C     17  16   9   3.183582   119.113   176.658
 H     18  17  16   2.184602   109.747    60.801
 H     18  17  16   2.185708   109.287   300.227
 H     18  17  16   2.190032   108.908   180.652
 H     17  16   9   2.183654   105.937   296.468
 H     17  16   9   2.176632   107.855    53.372
 H     16   9   8   2.173162   111.137    40.747
 H     16   9   8   2.184569   109.733   279.515
 C      5   1   2  79.850689   123.713   148.733
 C     26   5   1   2.637447   125.356   103.180
 C     27  26   5   2.701896   114.101   333.334
 C     28  27  26   2.642451   113.693     0.000
 S     26   5   1   3.133244    31.038    46.161
 H     27  26   5   2.155797   124.649   148.330
 C     28  27  26   3.079208   110.763   179.779
 C     32  28  27   3.215162   130.202   124.200
 C     33  32  28   3.246256   105.380   186.085
 H     34  33  32   2.187880   105.629   281.290
 H     34  33  32   2.189279   106.862    36.360
 H     33  32  28   2.163838   110.092   304.254
 H     33  32  28   2.162577   110.474    67.733
 H     32  28  27   2.222080   105.860   246.322
 H     32  28  27   2.213825   108.022   359.372
 C     34  33  32   3.083571   120.007   158.620
 C     41  34  33   3.217313   115.490   269.162
 C     42  41  34   3.188954   116.673   269.204
 H     43  42  41   2.185051   109.760     5.477
 H     43  42  41   2.187746   109.302   245.215
 H     43  42  41   2.188034   109.243   125.614
 H     42  41  34   2.176985   107.789    30.726
 H     42  41  34   2.178756   107.381   148.467
 H     41  34  33   2.183524   109.291    29.944
 H     41  34  33   2.186056   109.150   148.858
 H      1   2   3   2.003114   127.261   180.001
 H      4   3   2   2.003117   127.206   180.000
 H     26   5   1   2.003102   103.281   261.649
 H     29  28  27   2.003109   127.206   180.000

----------------------------
SLATER BASIS SET DIM= 120
----------------------------
  0 C     2 shells
 l=0 nsto= 1
    2       1.625000000000        1.000000000000
 l=1 nsto= 1
    2       1.625000000000        1.000000000000
  1 C     2 shells
 l=0 nsto= 1
    2       1.625000000000        1.000000000000
 l=1 nsto= 1
    2       1.625000000000        1.000000000000
  2 C     2 shells
 l=0 nsto= 1
    2       1.625000000000        1.000000000000
 l=1 nsto= 1
    2       1.625000000000        1.000000000000
  3 C     2 shells
 l=0 nsto= 1
    2       1.625000000000        1.000000000000
 l=1 nsto= 1
    2       1.625000000000        1.000000000000
  4 S     2 shells
 l=0 nsto= 1
    3       1.925000000000        1.000000000000
 l=1 nsto= 1
    3       1.925000000000        1.000000000000
  5 H     1 shells
 l=0 nsto= 1
    1       1.200000000000        1.000000000000
  6 C     2 shells
 l=0 nsto= 1
    2       1.625000000000        1.000000000000
 l=1 nsto= 1
    2       1.625000000000        1.000000000000
  7 C     2 shells
 l=0 nsto= 1
    2       1.625000000000        1.000000000000
 l=1 nsto= 1
    2       1.625000000000        1.000000000000
  8 C     2 shells
 l=0 nsto= 1
    2       1.625000000000        1.000000000000
 l=1 nsto= 1
    2       1.625000000000        1.000000000000
  9 H     1 shells
 l=0 nsto= 1
    1       1.200000000000        1.000000000000
 10 H     1 shells
 l=0 nsto= 1
    1       1.200000000000        1.000000000000
 11 H     1 shells
 l=0 nsto= 1
    1       1.200000000000        1.000000000000
 12 H     1 shells
 l=0 nsto= 1
    1       1.200000000000        1.000000000000
 13 H     1 shells
 l=0 nsto= 1
    1       1.200000000000        1.000000000000
 14 H     1 shells
 l=0 nsto= 1
    1       1.200000000000        1.000000000000
 15 C     2 shells
 l=0 nsto= 1
    2       1.625000000000        1.000000000000
 l=1 nsto= 1
    2       1.625000000000        1.000000000000
 16 C     2 shells
 l=0 nsto= 1
    2       1.625000000000        1.000000000000
 l=1 nsto= 1
    2       1.625000000000        1.000000000000
 17 C     2 shells
 l=0 nsto= 1
    2       1.625000000000        1.000000000000
 l=1 nsto= 1
    2       1.625000000000        1.000000000000
 18 H     1 shells
 l=0 nsto= 1
    1       1.200000000000        1.000000000000
 19 H     1 shells
 l=0 nsto= 1
    1       1.200000000000        1.000000000000
 20 H     1 shells
 l=0 nsto= 1
    1       1.200000000000        1.000000000000
 21 H     1 shells
 l=0 nsto= 1
    1       1.200000000000        1.000000000000
 22 H     1 shells
 l=0 nsto= 1
    1       1.200000000000        1.000000000000
 23 H     1 shells
 l=0 nsto= 1
    1       1.200000000000        1.000000000000
 24 H     1 shells
 l=0 nsto= 1
    1       1.200000000000        1.000000000000
 25 C     2 shells
 l=0 nsto= 1
    2       1.625000000000        1.000000000000
 l=1 nsto= 1
    2       1.625000000000        1.000000000000
 26 C     2 shells
 l=0 nsto= 1
    2       1.625000000000        1.000000000000
 l=1 nsto= 1
    2       1.625000000000        1.000000000000
 27 C     2 shells
 l=0 nsto= 1
    2       1.625000000000        1.000000000000
 l=1 nsto= 1
    2       1.625000000000        1.000000000000
 28 C     2 shells
 l=0 nsto= 1
    2       1.625000000000        1.000000000000
 l=1 nsto= 1
    2       1.625000000000        1.000000000000
 29 S     2 shells
 l=0 nsto= 1
    3       1.925000000000        1.000000000000
 l=1 nsto= 1
    3       1.925000000000        1.000000000000
 30 H     1 shells
 l=0 nsto= 1
    1       1.200000000000        1.000000000000
 31 C     2 shells
 l=0 nsto= 1
    2       1.625000000000        1.000000000000
 l=1 nsto= 1
    2       1.625000000000        1.000000000000
 32 C     2 shells
 l=0 nsto= 1
    2       1.625000000000        1.000000000000
 l=1 nsto= 1
    2       1.625000000000        1.000000000000
 33 C     2 shells
 l=0 nsto= 1
    2       1.625000000000        1.000000000000
 l=1 nsto= 1
    2       1.625000000000        1.000000000000
 34 H     1 shells
 l=0 nsto= 1
    1       1.200000000000        1.000000000000
 35 H     1 shells
 l=0 nsto= 1
    1       1.200000000000        1.000000000000
 36 H     1 shells
 l=0 nsto= 1
    1       1.200000000000        1.000000000000
 37 H     1 shells
 l=0 nsto= 1
    1       1.200000000000        1.000000000000
 38 H     1 shells
 l=0 nsto= 1
    1       1.200000000000        1.000000000000
 39 H     1 shells
 l=0 nsto= 1
    1       1.200000000000        1.000000000000
 40 C     2 shells
 l=0 nsto= 1
    2       1.625000000000        1.000000000000
 l=1 nsto= 1
    2       1.625000000000        1.000000000000
 41 C     2 shells
 l=0 nsto= 1
    2       1.625000000000        1.000000000000
 l=1 nsto= 1
    2       1.625000000000        1.000000000000
 42 C     2 shells
 l=0 nsto= 1
    2       1.625000000000        1.000000000000
 l=1 nsto= 1
    2       1.625000000000        1.000000000000
 43 H     1 shells
 l=0 nsto= 1
    1       1.200000000000        1.000000000000
 44 H     1 shells
 l=0 nsto= 1
    1       1.200000000000        1.000000000000
 45 H     1 shells
 l=0 nsto= 1
    1       1.200000000000        1.000000000000
 46 H     1 shells
 l=0 nsto= 1
    1       1.200000000000        1.000000000000
 47 H     1 shells
 l=0 nsto= 1
    1       1.200000000000        1.000000000000
 48 H     1 shells
 l=0 nsto= 1
    1       1.200000000000        1.000000000000
 49 H     1 shells
 l=0 nsto= 1
    1       1.200000000000        1.000000000000
 50 H     1 shells
 l=0 nsto= 1
    1       1.200000000000        1.000000000000
 51 H     1 shells
 l=0 nsto= 1
    1       1.200000000000        1.000000000000
 52 H     1 shells
 l=0 nsto= 1
    1       1.200000000000        1.000000000000
 53 H     1 shells
 l=0 nsto= 1
    1       1.200000000000        1.000000000000
------------------------------------------------------------------------------
                           ORCA NDO INTEGRAL CALCULATION
------------------------------------------------------------------------------

--------------
NDO PARAMETERS
--------------

Gamma integral treatment              ... Mataga-Nishimoto
Nuclear repulsuion treatment          ... Direct (ZA*ZB/RAB)
Interaction factors:
s-s (sigma) =    1.0000
s-p (sigma) =    1.0000
s-d (sigma) =    1.0000
p-p (sigma) =    1.2670  p-p(pi) =    0.5850
p-d (sigma) =    1.0000  p-d(pi) =    1.0000
d-d (sigma) =    1.0000  d-d(pi) =    1.0000 d-d (delta) =    1.0000

fGamma parameter for Mataga-Nishimoto gamma integrals:    1.2000

--------------------------
Parameters for Element H :
--------------------------
 One-electron parameters (in eV)
  U(s)  =   -13.060000 Beta(s) =    12.000000 Neff(s) =     1.000000
 One-center electron repulsion parameters (in eV)
  G(s,s)=    12.850000
--------------------------
Parameters for Element C :
--------------------------
 One-electron parameters (in eV)
  U(s)  =   -50.870766 Beta(s) =    17.000000 Neff(s) =     2.000000
  U(p)  =   -41.599980 Beta(p) =    17.000000 Neff(p) =     2.000000 
 One-center electron repulsion parameters (in eV)
  G(s,s)=    11.110000
  G(s,p)=    11.110000 G(p,p)  =    11.110000
 Slater-Condon parameters (in eV)
 F2(p,p)=     4.5098 G1(s,p)=    6.8977
--------------------------
Parameters for Element S :
--------------------------
 One-electron parameters (in eV)
  U(s)  =   -69.509597 Beta(s) =    15.000000 Neff(s) =     2.000000
  U(p)  =   -60.725746 Beta(p) =    15.000000 Neff(p) =     4.000000 
 One-center electron repulsion parameters (in eV)
  G(s,s)=    10.090000
  G(s,p)=    10.090000 G(p,p)  =    10.090000
 Slater-Condon parameters (in eV)
 F2(p,p)=     4.5377 G1(s,p)=    3.0756

 Number of atoms                    ....   54
 Number of basis functions          ....  120

 Overlap integrals                  .... done
 One electron matrix                .... done
 Nuclear repulsion                  .... done
 Integral list                      .... done
 Electron-electron repulsion        .... done
-------------------------------------------------------------------------------
                                 ORCA SCF
-------------------------------------------------------------------------------

------------
SCF SETTINGS
------------
Hamiltonian:
 ZDO-Hamiltonian        Method          .... INDO


General Settings:
 Integral files         IntName         .... /Users/mattyjones/GoogleDrive/Boise/Code/MorphCT/tests/output_EZ/donor_polymer/chromophores/input_orca/pair/00014-00020
 Hartree-Fock type      HFTyp           .... RHF
 Total Charge           Charge          ....    0
 Multiplicity           Mult            ....    1
 Number of Electrons    NEL             ....  124
 Basis Dimension        Dim             ....  120
 Nuclear Repulsion      ENuc            ....    617.2614547524 Eh

Convergence Acceleration:
 DIIS                   CNVDIIS         .... on
   Start iteration      DIISMaxIt       ....    12
   Startup error        DIISStart       ....  0.200000
   # of expansion vecs  DIISMaxEq       ....     5
   Bias factor          DIISBfac        ....   1.050
   Max. coefficient     DIISMaxC        ....  10.000
 Newton-Raphson         CNVNR           .... off
 SOSCF                  CNVSOSCF        .... on
   Start iteration      SOSCFMaxIt      ....   150
   Startup grad/error   SOSCFStart      ....  0.003300
 Level Shifting         CNVShift        .... on
   Level shift para.    LevelShift      ....    0.2500
   Turn off err/grad.   ShiftErr        ....    0.0010
 Zerner damping         CNVZerner       .... off
 Static damping         CNVDamp         .... on
   Fraction old density DampFac         ....    0.7000
   Max. Damping (<1)    DampMax         ....    0.9800
   Min. Damping (>=0)   DampMin         ....    0.0000
   Turn off err/grad.   DampErr         ....    0.1000
 Fernandez-Rico         CNVRico         .... off

SCF Procedure:
 Maximum # iterations   MaxIter         ....   125
 SCF integral mode      SCFMode         .... Conventional
 Integral Buffer length BufferLength    .... 1048576
 Integral index format  IndFormat       ....     0
 Integral value format  ValFormat       ....     0
 Integral Storage       Thresh          ....  1.000e-08 Eh

Convergence Tolerance:
 Convergence Check Mode ConvCheckMode   .... Total+1el-Energy
 Energy Change          TolE            ....  1.000e-06 Eh
 1-El. energy change                    ....  1.000e-03 Eh
 Orbital Gradient       TolG            ....  5.000e-05
 Orbital Rotation angle TolX            ....  5.000e-05
 DIIS Error             TolErr          ....  1.000e-06


Diagonalization of the overlap matrix:
Smallest eigenvalue                        ... 1.697e-01
Time for diagonalization                   ...    0.003 sec
Threshold for overlap eigenvalues          ... 1.000e-08
Number of eigenvalues below threshold      ... 0
Time for construction of square roots      ...    0.001 sec
Total time needed                          ...    0.005 sec

-------------------------------
INITIAL GUESS: EXTENDED HUECKEL
-------------------------------
EHT matrix was read from disk
EHT matrix was diagonalized
Initial density was built
                      ------------------
                      INITIAL GUESS DONE
                      ------------------

 InCore treatment chosen:
   Memory dedicated               ...    1024 MB
   Memory needed                  ...      0 MB
   Number of tiny    integrals    ...       0
   Number of small   integrals    ...       0
   Number of regular integrals    ...    7392

--------------
SCF ITERATIONS
--------------
ITER       Energy         Delta-E        Max-DP      RMS-DP      [F,P]     Damp
  0    -23.7188417890   0.000000000000 0.04296240  0.00144899  0.1110138 0.7000
  1    -23.7606612159  -0.041819426855 0.04116991  0.00136517  0.0758921 0.7000
                               ***Turning on DIIS***
  2    -23.7916075079  -0.030946292019 0.10631396  0.00350467  0.0458929 0.0000
  3    -23.8732504499  -0.081642941981 0.01855564  0.00072810  0.0212235 0.0000
  4    -23.8571682276   0.016082222325 0.01280935  0.00049993  0.0076676 0.0000
  5    -23.8744471932  -0.017278965659 0.00898383  0.00033790  0.0044837 0.0000
  6    -23.8766819535  -0.002234760259 0.00675230  0.00023911  0.0024475 0.0000
                      *** Initiating the SOSCF procedure ***
                           *** Shutting down DIIS ***
                      *** Re-Reading the Fockian *** 
                      *** Removing any level shift *** 
ITER      Energy       Delta-E        Grad      Rot      Max-DP    RMS-DP
  7    -23.87283314   0.0038488118  0.003013  0.003013  0.004029  0.000134
  8    -23.87099716   0.0018359781  0.000806  0.002216  0.001996  0.000062
  9    -23.87101141  -0.0000142458  0.000352  0.002138  0.002239  0.000065
 10    -23.87101659  -0.0000051826  0.000033  0.000096  0.000152  0.000004
                 **** Energy Check signals convergence ****
              ***Rediagonalizing the Fockian in SOSCF/NRSCF***

               *****************************************************
               *                     SUCCESS                       *
               *           SCF CONVERGED AFTER  11 CYCLES          *
               *****************************************************


----------------
TOTAL SCF ENERGY
----------------

Total Energy       :          -23.87101664 Eh            -649.56339 eV

Components:
Nuclear Repulsion  :          617.26145475 Eh           16796.53810 eV
Electronic Energy  :         -641.13247140 Eh          -17446.10149 eV

One Electron Energy:        -1191.92181690 Eh          -32433.84154 eV
Two Electron Energy:          550.78934550 Eh           14987.74005 eV


---------------
SCF CONVERGENCE
---------------

  Last Energy change         ...   -5.1991e-08  Tolerance :   1.0000e-06
  Last MAX-Density change    ...    7.0363e-05  Tolerance :   1.0000e-05
  Last RMS-Density change    ...    1.5222e-06  Tolerance :   1.0000e-06
  Last Orbital Gradient      ...    1.4046e-05  Tolerance :   5.0000e-05
  Last Orbital Rotation      ...    2.8709e-05  Tolerance :   5.0000e-05

             **** THE GBW FILE WAS UPDATED (/Users/mattyjones/GoogleDrive/Boise/Code/MorphCT/tests/output_EZ/donor_polymer/chromophores/input_orca/pair/00014-00020.gbw) ****
             **** DENSITY FILE WAS UPDATED (/Users/mattyjones/GoogleDrive/Boise/Code/MorphCT/tests/output_EZ/donor_polymer/chromophores/input_orca/pair/00014-00020.scfp.tmp) ****
             **** ENERGY FILE WAS UPDATED (/Users/mattyjones/GoogleDrive/Boise/Code/MorphCT/tests/output_EZ/donor_polymer/chromophores/input_orca/pair/00014-00020.en.tmp) ****
----------------
ORBITAL ENERGIES
----------------

  NO   OCC          E(Eh)            E(eV) 
   0   2.0000      -1.557351       -42.3777 
   1   2.0000      -1.555258       -42.3207 
   2   2.0000      -1.399396       -38.0795 
   3   2.0000      -1.387208       -37.7478 
   4   2.0000      -1.292014       -35.1575 
   5   2.0000      -1.289410       -35.0866 
   6   2.0000      -1.181963       -32.1629 
   7   2.0000      -1.169506       -31.8239 
   8   2.0000      -1.115685       -30.3593 
   9   2.0000      -1.115029       -30.3415 
  10   2.0000      -1.062492       -28.9119 
  11   2.0000      -1.042090       -28.3567 
  12   2.0000      -0.949832       -25.8462 
  13   2.0000      -0.947239       -25.7757 
  14   2.0000      -0.890122       -24.2215 
  15   2.0000      -0.887596       -24.1527 
  16   2.0000      -0.871548       -23.7160 
  17   2.0000      -0.854760       -23.2592 
  18   2.0000      -0.834182       -22.6992 
  19   2.0000      -0.832313       -22.6484 
  20   2.0000      -0.785204       -21.3665 
  21   2.0000      -0.775463       -21.1014 
  22   2.0000      -0.728574       -19.8255 
  23   2.0000      -0.727098       -19.7853 
  24   2.0000      -0.703368       -19.1396 
  25   2.0000      -0.699482       -19.0339 
  26   2.0000      -0.668926       -18.2024 
  27   2.0000      -0.664760       -18.0890 
  28   2.0000      -0.655994       -17.8505 
  29   2.0000      -0.629684       -17.1346 
  30   2.0000      -0.618590       -16.8327 
  31   2.0000      -0.610497       -16.6125 
  32   2.0000      -0.608636       -16.5618 
  33   2.0000      -0.585020       -15.9192 
  34   2.0000      -0.578235       -15.7346 
  35   2.0000      -0.576269       -15.6811 
  36   2.0000      -0.561997       -15.2927 
  37   2.0000      -0.560511       -15.2523 
  38   2.0000      -0.549683       -14.9576 
  39   2.0000      -0.541051       -14.7227 
  40   2.0000      -0.533267       -14.5109 
  41   2.0000      -0.531860       -14.4726 
  42   2.0000      -0.523901       -14.2561 
  43   2.0000      -0.514304       -13.9949 
  44   2.0000      -0.512666       -13.9503 
  45   2.0000      -0.504388       -13.7251 
  46   2.0000      -0.499919       -13.6035 
  47   2.0000      -0.490888       -13.3577 
  48   2.0000      -0.487506       -13.2657 
  49   2.0000      -0.485682       -13.2161 
  50   2.0000      -0.483230       -13.1494 
  51   2.0000      -0.475581       -12.9412 
  52   2.0000      -0.472470       -12.8566 
  53   2.0000      -0.469737       -12.7822 
  54   2.0000      -0.461831       -12.5671 
  55   2.0000      -0.460513       -12.5312 
  56   2.0000      -0.439568       -11.9612 
  57   2.0000      -0.435777       -11.8581 
  58   2.0000      -0.357683        -9.7331 
  59   2.0000      -0.356481        -9.7003 
  60   2.0000      -0.305262        -8.3066 
  61   2.0000      -0.305024        -8.3001 
  62   0.0000       0.007434         0.2023 
  63   0.0000       0.007463         0.2031 
  64   0.0000       0.062765         1.7079 
  65   0.0000       0.065501         1.7824 
  66   0.0000       0.074717         2.0331 
  67   0.0000       0.074985         2.0405 
  68   0.0000       0.084517         2.2998 
  69   0.0000       0.087435         2.3792 
  70   0.0000       0.103367         2.8128 
  71   0.0000       0.104032         2.8309 
  72   0.0000       0.107600         2.9279 
  73   0.0000       0.108260         2.9459 
  74   0.0000       0.123908         3.3717 
  75   0.0000       0.125504         3.4151 
  76   0.0000       0.140965         3.8358 
  77   0.0000       0.141180         3.8417 
  78   0.0000       0.155548         4.2327 
  79   0.0000       0.156587         4.2610 
  80   0.0000       0.166207         4.5227 
  81   0.0000       0.167091         4.5468 
  82   0.0000       0.168502         4.5852 
  83   0.0000       0.172199         4.6858 
  84   0.0000       0.202714         5.5161 
  85   0.0000       0.204980         5.5778 
  86   0.0000       0.231780         6.3071 
  87   0.0000       0.234421         6.3789 
  88   0.0000       0.235471         6.4075 
  89   0.0000       0.236584         6.4378 
  90   0.0000       0.237032         6.4500 
  91   0.0000       0.237878         6.4730 
  92   0.0000       0.239052         6.5049 
  93   0.0000       0.239090         6.5060 
  94   0.0000       0.240630         6.5479 
  95   0.0000       0.241756         6.5785 
  96   0.0000       0.241791         6.5795 
  97   0.0000       0.242818         6.6074 
  98   0.0000       0.244704         6.6587 
  99   0.0000       0.245619         6.6836 
 100   0.0000       0.245687         6.6855 
 101   0.0000       0.252136         6.8610 
 102   0.0000       0.258021         7.0211 
 103   0.0000       0.263974         7.1831 
 104   0.0000       0.265282         7.2187 
 105   0.0000       0.265593         7.2271 
 106   0.0000       0.270086         7.3494 
 107   0.0000       0.270643         7.3646 
 108   0.0000       0.299634         8.1535 
 109   0.0000       0.302202         8.2233 
 110   0.0000       0.309963         8.4345 
 111   0.0000       0.310012         8.4359 
 112   0.0000       0.336390         9.1536 
 113   0.0000       0.343924         9.3586 
 114   0.0000       0.350215         9.5298 
 115   0.0000       0.356920         9.7123 
 116   0.0000       0.409679        11.1479 
 117   0.0000       0.421229        11.4622 
 118   0.0000       0.430313        11.7094 
 119   0.0000       0.431068        11.7300 
-------
TIMINGS
-------

Total SCF time: 0 days 0 hours 0 min 0 sec 

Total time                  ....       0.124 sec
Sum of individual times     ....       0.101 sec  ( 81.6%)

Fock matrix formation       ....       0.051 sec  ( 40.9%)
Diagonalization             ....       0.025 sec  ( 20.4%)
Density matrix formation    ....       0.005 sec  (  4.4%)
Population analysis         ....       0.000 sec  (  0.0%)
Initial guess               ....       0.003 sec  (  2.6%)
Orbital Transformation      ....       0.000 sec  (  0.0%)
Orbital Orthonormalization  ....       0.000 sec  (  0.0%)
DIIS solution               ....       0.010 sec  (  8.3%)
SOSCF solution              ....       0.006 sec  (  5.1%)

-------------------------   --------------------
FINAL SINGLE POINT ENERGY       -23.871016644089
-------------------------   --------------------


                            ***************************************
                            *     ORCA property calculations      *
                            ***************************************

                                    ---------------------
                                    Active property flags
                                    ---------------------
   (+) Dipole Moment


------------------------------------------------------------------------------
                       ORCA ELECTRIC PROPERTIES CALCULATION
------------------------------------------------------------------------------

Dipole Moment Calculation                       ... on
Quadrupole Moment Calculation                   ... off
Polarizability Calculation                      ... off
GBWName                                         ... /Users/mattyjones/GoogleDrive/Boise/Code/MorphCT/tests/output_EZ/donor_polymer/chromophores/input_orca/pair/00014-00020.gbw
Electron density file                           ... /Users/mattyjones/GoogleDrive/Boise/Code/MorphCT/tests/output_EZ/donor_polymer/chromophores/input_orca/pair/00014-00020.scfp.tmp

-------------
DIPOLE MOMENT
-------------
                                X             Y             Z
Electronic contribution:    -14.10784       1.00329     -47.57799
Nuclear contribution   :      7.60306      -0.75392      25.82412
                        -----------------------------------------
Total Dipole Moment    :     -6.50478       0.24938     -21.75387
                        -----------------------------------------
Magnitude (a.u.)       :     22.70694
Magnitude (Debye)      :     57.71646


Timings for individual modules:

Sum of individual times         ...        0.224 sec (=   0.004 min)
STO integral calculation        ...        0.054 sec (=   0.001 min)  24.1 %
SCF iterations                  ...        0.170 sec (=   0.003 min)  75.9 %
                             ****ORCA TERMINATED NORMALLY****
TOTAL RUN TIME: 0 days 0 hours 0 minutes 0 seconds 524 msec

