
                                 *****************
                                 * O   R   C   A *
                                 *****************

           --- An Ab Initio, DFT and Semiempirical electronic structure package ---

                  #######################################################
                  #                        -***-                        #
                  #  Department of molecular theory and spectroscopy    #
                  #              Directorship: Frank Neese              #
                  # Max Planck Institute for Chemical Energy Conversion #
                  #                  D-45470 Muelheim/Ruhr              #
                  #                       Germany                       #
                  #                                                     #
                  #                  All rights reserved                #
                  #                        -***-                        #
                  #######################################################


                         Program Version 3.0.3 - RELEASE   -


 With contributions from (in alphabetic order):
   Ute Becker             : Parallelization
   Dmytro Bykov           : SCF Hessian
   Dmitry Ganyushin       : Spin-Orbit,Spin-Spin,Magnetic field MRCI
   Andreas Hansen         : Spin unrestricted coupled pair/coupled cluster methods
   Dimitrios Liakos       : Extrapolation schemes; parallel MDCI
   Robert Izsak           : Overlap fitted RIJCOSX, COSX-SCS-MP3
   Christian Kollmar      : KDIIS, OOCD, Brueckner-CCSD(T), CCSD density
   Simone Kossmann        : Meta GGA functionals, TD-DFT gradient, OOMP2, MP2 Hessian
   Taras Petrenko         : DFT Hessian,TD-DFT gradient, ASA and ECA modules, normal mode analysis, Resonance Raman, ABS, FL, XAS/XES, NRVS
   Christoph Reimann      : Effective Core Potentials
   Michael Roemelt        : Restricted open shell CIS
   Christoph Riplinger    : Improved optimizer, TS searches, QM/MM, DLPNO-CCSD
   Barbara Sandhoefer     : DKH picture change effects
   Igor Schapiro          : Molecular dynamics
   Kantharuban Sivalingam : CASSCF convergence, NEVPT2
   Boris Wezisla          : Elementary symmetry handling
   Frank Wennmohs         : Technical directorship


 We gratefully acknowledge several colleagues who have allowed us to
 interface, adapt or use parts of their codes:
   Stefan Grimme, W. Hujo, H. Kruse, T. Risthaus : VdW corrections, initial TS optimization,
                                                   DFT functionals, gCP
   Ed Valeev                                     : LibInt (2-el integral package), F12 methods
   Garnet Chan, S. Sharma, R. Olivares           : DMRG
   Ulf Ekstrom                                   : XCFun DFT Library
   Mihaly Kallay                                 : mrcc  (arbitrary order and MRCC methods)
   Andreas Klamt, Michael Diedenhofen            : otool_cosmo (COSMO solvation model)
   Frank Weinhold                                : gennbo (NPA and NBO analysis)
   Christopher J. Cramer and Donald G. Truhlar   : smd solvation model


 Your calculation uses the libint2 library for the computation of 2-el integrals
 For citations please refer to: http://libint.valeyev.net

 This ORCA versions uses:
   CBLAS   interface :  Fast vector & matrix operations
   LAPACKE interface :  Fast linear algebra routines
   SCALAPACK package :  Parallel linear algebra routines


leaving
================================================================================
                                        WARNINGS
                       Please study these warnings very carefully!
================================================================================
Now building the actual basis set

WARNING: Direct SCF is incompatible with Method<>HF and Method<>DFT
  ===> : conventional SCF is chosen

WARNING: The NDO methods need Guess=HUECKEL or Guess=HCORE or Guess=MOREAD
  ===> : Guess is set to Hueckel

WARNING: The NDO methods need %rel::SOCType==1
  ===> : %rel::SOCType is set to 1

WARNING: The NDO methods cannot have frozencore=1
  ===> : %method FrozenCore=0 end


INFO   : the flag for use of LIBINT has been found!

================================================================================
                                       INPUT FILE
================================================================================
NAME = /Users/mattyjones/GoogleDrive/Boise/Code/MorphCT/tests/output_EZ/donor_polymer/chromophores/input_orca/pair/00012-00025.inp
|  1> # ================================================================
|  2> # Orca input file made by Matty Jones
|  3> # ================================================================
|  4> ! ZINDO/S 
|  5> ! NOPOP
|  6> ! NOMOPRINT
|  7> * xyz 0   1
|  8>  C  31.69592  -5.97824  1.68672
|  9>  C  31.44553  -7.35007  1.62952
| 10>  C  31.72943  -8.04659  2.84546
| 11>  C  32.20641  -7.22058  3.86797
| 12>  S  32.25114  -5.69341  3.22285
| 13>  H  31.03452  -7.87762  0.70286
| 14>  C  31.49661  -9.65521  2.93349
| 15>  C  31.11228  -10.68438  4.27322
| 16>  C  29.53345  -10.93018  4.84707
| 17>  H  29.18704  -9.92163  5.29805
| 18>  H  28.87095  -11.17562  3.93340
| 19>  H  31.81364  -10.50235  5.14751
| 20>  H  31.39708  -11.73835  3.85364
| 21>  H  32.47107  -10.15396  2.51790
| 22>  H  30.63544  -9.91499  2.18606
| 23>  C  29.35148  -12.09382  5.98177
| 24>  C  28.95884  -13.63432  5.38671
| 25>  C  30.26357  -14.64283  5.05344
| 26>  H  31.20658  -14.00483  4.85024
| 27>  H  30.02128  -15.28514  4.12135
| 28>  H  30.45174  -15.33628  5.96140
| 29>  H  28.35801  -13.49501  4.41303
| 30>  H  28.29629  -14.15799  6.17178
| 31>  H  30.32947  -12.19805  6.58946
| 32>  H  28.50043  -11.78870  6.70452
| 33>  C  -26.90395  12.77124  -5.72859
| 34>  C  -27.82607  12.10419  -4.92072
| 35>  C  -28.57618  12.96355  -4.05868
| 36>  C  -28.24469  14.31599  -4.18649
| 37>  S  -27.05766  14.37651  -5.34309
| 38>  H  -27.76496  10.98355  -4.72472
| 39>  C  -29.70053  12.37614  -3.04477
| 40>  C  -30.86384  11.35400  -3.78805
| 41>  C  -32.19085  10.44467  -3.19432
| 42>  H  -32.49715  10.93277  -2.19207
| 43>  H  -33.05232  10.58259  -3.95352
| 44>  H  -30.22994  10.57405  -4.30419
| 45>  H  -31.34975  12.04646  -4.58358
| 46>  H  -30.29390  13.24245  -2.54772
| 47>  H  -29.18942  11.75524  -2.20783
| 48>  C  -31.96545  8.84412  -2.94668
| 49>  C  -32.06515  7.86140  -4.33381
| 50>  C  -33.56034  7.27974  -4.84735
| 51>  H  -33.39547  6.34014  -5.50470
| 52>  H  -34.08978  8.09685  -5.47354
| 53>  H  -34.20960  7.00489  -3.93181
| 54>  H  -31.40048  6.93885  -4.13143
| 55>  H  -31.63157  8.46555  -5.20617
| 56>  H  -32.77014  8.45860  -2.21063
| 57>  H  -30.92191  8.67088  -2.48218
| 58>  H  31.55983  -5.26817  0.91155
| 59>  H  32.48174  -7.50993  4.84984
| 60>  H  -26.24442  12.34210  -6.43884
| 61>  H  -28.66426  15.13174  -3.65534
| 62> *
| 63> 
| 64>                          ****END OF INPUT****
================================================================================

                       ****************************
                       * Single Point Calculation *
                       ****************************

---------------------------------
CARTESIAN COORDINATES (ANGSTROEM)
---------------------------------
  C     31.695920   -5.978240    1.686720
  C     31.445530   -7.350070    1.629520
  C     31.729430   -8.046590    2.845460
  C     32.206410   -7.220580    3.867970
  S     32.251140   -5.693410    3.222850
  H     31.034520   -7.877620    0.702860
  C     31.496610   -9.655210    2.933490
  C     31.112280  -10.684380    4.273220
  C     29.533450  -10.930180    4.847070
  H     29.187040   -9.921630    5.298050
  H     28.870950  -11.175620    3.933400
  H     31.813640  -10.502350    5.147510
  H     31.397080  -11.738350    3.853640
  H     32.471070  -10.153960    2.517900
  H     30.635440   -9.914990    2.186060
  C     29.351480  -12.093820    5.981770
  C     28.958840  -13.634320    5.386710
  C     30.263570  -14.642830    5.053440
  H     31.206580  -14.004830    4.850240
  H     30.021280  -15.285140    4.121350
  H     30.451740  -15.336280    5.961400
  H     28.358010  -13.495010    4.413030
  H     28.296290  -14.157990    6.171780
  H     30.329470  -12.198050    6.589460
  H     28.500430  -11.788700    6.704520
  C    -26.903950   12.771240   -5.728590
  C    -27.826070   12.104190   -4.920720
  C    -28.576180   12.963550   -4.058680
  C    -28.244690   14.315990   -4.186490
  S    -27.057660   14.376510   -5.343090
  H    -27.764960   10.983550   -4.724720
  C    -29.700530   12.376140   -3.044770
  C    -30.863840   11.354000   -3.788050
  C    -32.190850   10.444670   -3.194320
  H    -32.497150   10.932770   -2.192070
  H    -33.052320   10.582590   -3.953520
  H    -30.229940   10.574050   -4.304190
  H    -31.349750   12.046460   -4.583580
  H    -30.293900   13.242450   -2.547720
  H    -29.189420   11.755240   -2.207830
  C    -31.965450    8.844120   -2.946680
  C    -32.065150    7.861400   -4.333810
  C    -33.560340    7.279740   -4.847350
  H    -33.395470    6.340140   -5.504700
  H    -34.089780    8.096850   -5.473540
  H    -34.209600    7.004890   -3.931810
  H    -31.400480    6.938850   -4.131430
  H    -31.631570    8.465550   -5.206170
  H    -32.770140    8.458600   -2.210630
  H    -30.921910    8.670880   -2.482180
  H     31.559830   -5.268170    0.911550
  H     32.481740   -7.509930    4.849840
  H    -26.244420   12.342100   -6.438840
  H    -28.664260   15.131740   -3.655340

----------------------------
CARTESIAN COORDINATES (A.U.)
----------------------------
  NO LB      ZA    FRAG    MASS        X           Y           Z
   0 C     4.0000    0    12.011         59.896608362677284        -11.297236362853385          3.187438864607654
   1 C     4.0000    0    12.011         59.423439836004739        -13.889619365150574          3.079346529747358
   2 C     4.0000    0    12.011         59.959933085424979        -15.205851411949405          5.377140125027565
   3 C     4.0000    0    12.011         60.861294656782732        -13.644918728069111          7.309403994223384
   4 S     6.0000    0    32.060         60.945822106753035        -10.758985668128593          6.090303870708106
   5 H     1.0000    0     1.008         58.646743497701763        -14.886544387100731          1.328212910487891
   6 C     4.0000    0    12.011         59.519967046925437        -18.245702665497809          5.543492716596653
   7 C     4.0000    0    12.011         58.793688601875473        -20.190552110745543          8.075215509994971
   8 C     4.0000    0    12.011         55.810132289856590        -20.655046794463388          9.159634851945682
   9 H     1.0000    0     1.008         55.155512259804929        -18.749163502097108         10.011863543821487
  10 H     1.0000    0     1.008         54.558188726133764        -21.118861176773020          7.433048775165851
  11 H     1.0000    0     1.008         60.119066923162485        -19.846565262587855          9.727384171620981
  12 H     1.0000    0     1.008         59.331882604816251        -22.182266764114527          7.282324218724292
  13 H     1.0000    0     1.008         61.361429575386332        -19.188203574791032          4.758141432600319
  14 H     1.0000    0     1.008         57.892591592176466        -18.736615720567869          4.131054712319891
  15 C     4.0000    0    12.011         55.466258825266934        -22.854007712939509         11.303907096106126
  16 C     4.0000    0    12.011         54.724276756044098        -25.765130822245201         10.179406662854944
  17 C     4.0000    0    12.011         57.189859134755174        -27.670938525566122          9.549617634203010
  18 H     1.0000    0     1.008         58.971889776304252        -26.465293252124361          9.165625283790213
  19 H     1.0000    0     1.008         56.731997389767393        -28.884728518645080          7.788222802036350
  20 H     1.0000    0     1.008         57.545448901375138        -28.981369113133812         11.265413374758150
  21 H     1.0000    0     1.008         53.588872603000198        -25.501873074528632          8.339418120778502
  22 H     1.0000    0     1.008         53.472238706014572        -26.754723706795740         11.662973958812502
  23 H     1.0000    0     1.008         57.314392086980583        -23.050973867878124         12.452274770428732
  24 H     1.0000    0     1.008         53.858007398993259        -22.277414474957460         12.669706659397709
  25 C     4.0000    0    12.011        -50.841097420710653         24.134145990580446        -10.825466233519942
  26 C     4.0000    0    12.011        -52.583651683322124         22.873604172948273         -9.298813181708981
  27 C     4.0000    0    12.011        -54.001154153637792         24.497559223394841         -7.669793665223505
  28 C     4.0000    0    12.011        -53.374728837504236         27.053300435955297         -7.911319562399981
  29 S     6.0000    0    32.060        -51.131567224755692         27.167666661580213        -10.096976808893301
  30 H     1.0000    0     1.008        -52.468170519278196         20.755901478230761         -8.928426859460416
  31 C     4.0000    0    12.011        -56.125867732312152         23.387515195068158         -5.753781440779409
  32 C     4.0000    0    12.011        -58.324205041164085         21.455950524541890         -7.158377081600397
  33 C     4.0000    0    12.011        -60.831890518138920         19.737565859183281         -6.036389984107332
  34 H     1.0000    0     1.008        -61.410713632959002         20.659941185150242         -4.142411966384758
  35 H     1.0000    0     1.008        -62.459832890728066         19.998196887573698         -7.471070064980347
  36 H     1.0000    0     1.008        -57.126307644871403         19.982058626390010         -8.133740328362512
  37 H     1.0000    0     1.008        -59.242441866897757         22.764510283237001         -8.661710912918771
  38 H     1.0000    0     1.008        -57.247174528397004         25.024603842145478         -4.814493065913851
  39 H     1.0000    0     1.008        -55.160009808003657         22.214184238516456         -4.172194050255357
  40 C     4.0000    0    12.011        -60.405946247553075         16.712964695535621         -5.568418204303074
  41 C     4.0000    0    12.011        -60.594351943105025         14.855893029208527         -8.189714016449258
  42 C     4.0000    0    12.011        -63.419851561282734         13.756714926151894         -9.160163975263178
  43 H     1.0000    0     1.008        -63.108292413583150         11.981128250719484        -10.402375449396313
  44 H     1.0000    0     1.008        -64.420348165625995         15.300829047440287        -10.343491583063328
  45 H     1.0000    0     1.008        -64.646775150992454         13.237323698243635         -7.430044110612917
  46 H     1.0000    0     1.008        -59.338307673671586         13.112526184359478         -7.807271241466276
  47 H     1.0000    0     1.008        -59.775004485959450         15.997571073017053         -9.838235506636803
  48 H     1.0000    0     1.008        -61.926589970258163         15.984437476386301         -4.177485283430337
  49 H     1.0000    0     1.008        -58.433941437760893         16.385588540095103         -4.690640415096652
  50 H     1.0000    0     1.008         59.639435533111936         -9.955398526939920          1.722579857375917
  51 H     1.0000    0     1.008         61.381592953235284        -14.191710984919226          9.164869393336645
  52 H     1.0000    0     1.008        -49.594766343605578         23.323188917469480        -12.167644220137511
  53 H     1.0000    0     1.008        -54.167601231513572         28.594844529701561         -6.907591526367708

--------------------------------
INTERNAL COORDINATES (ANGSTROEM)
--------------------------------
 C      0   0   0   0.000000     0.000     0.000
 C      1   0   0   1.395666     0.000     0.000
 C      2   1   0   1.429773   114.102     0.000
 C      3   2   1   1.398331   113.693     0.000
 S      1   2   3   1.658039   105.480     0.000
 H      2   1   3   1.142776   123.471   179.096
 C      3   2   1   1.627763   119.935   180.365
 C      7   3   2   1.732564   131.344   208.213
 C      8   7   3   1.697771   123.618    83.446
 H      9   8   7   1.157824   106.485   292.609
 H      9   8   7   1.154963   107.266    48.919
 H      8   7   3   1.135528   111.293   309.506
 H      8   7   3   1.169620   101.763   197.331
 H      7   3   2   1.170914   106.422    85.157
 H      7   3   2   1.169509   106.874   331.152
 C      9   8   7   1.635456   116.167   171.754
 C     16   9   8   1.697470   115.355   267.233
 C     17  16   9   1.682404   115.726    91.190
 H     18  17  16   1.156547   109.661   335.781
 H     18  17  16   1.157609   109.256   215.652
 H     18  17  16   1.157874   109.251    95.933
 H     17  16   9   1.152587   107.880   330.106
 H     17  16   9   1.153056   107.842   212.156
 H     16   9   8   1.156121   109.555    28.458
 H     16   9   8   1.157477   109.116   147.126
 C     11   9   8  61.462555   124.201   224.065
 C     26  11   9   1.395677   108.805   281.684
 C     27  26  11   1.429782   114.101   124.052
 C     28  27  26   1.398326   113.693     0.000
 S     26  11   9   1.658050   115.137    39.798
 H     27  26  11   1.139291   122.294   322.071
 C     28  27  26   1.623954   121.484   179.878
 C     32  28  27   1.717709   114.455   308.142
 C     33  32  28   1.714745   133.617   177.191
 H     34  33  32   1.156100   106.339    22.682
 H     34  33  32   1.156519   106.613   138.593
 H     33  32  28   1.129846   103.208    54.188
 H     33  32  28   1.161240   103.002   300.252
 H     32  28  27   1.161740   110.550   187.979
 H     32  28  27   1.160698   109.805    68.448
 C     34  33  32   1.635204   117.699   260.761
 C     41  34  33   1.702882   115.685   279.535
 C     42  41  34   1.684531   119.971   273.456
 H     43  42  41   1.158507   109.069   202.078
 H     43  42  41   1.157622   109.094    82.747
 H     43  42  41   1.155549   109.834   322.297
 H     42  41  34   1.154921   106.532   152.227
 H     42  41  34   1.146299   107.074    34.933
 H     41  34  33   1.156685   109.069   159.456
 H     41  34  33   1.155313   109.400    40.538
 H      1   2   3   1.060004   127.260   180.000
 H      4   3   2   1.059999   127.207   180.000
 H     26  11   9   1.059998    51.901   158.608
 H     29  28  27   1.060003   127.206   180.000

---------------------------
INTERNAL COORDINATES (A.U.)
---------------------------
 C      0   0   0   0.000000     0.000     0.000
 C      1   0   0   2.637427     0.000     0.000
 C      2   1   0   2.701878   114.102     0.000
 C      3   2   1   2.642462   113.693     0.000
 S      1   2   3   3.133239   105.480     0.000
 H      2   1   3   2.159534   123.471   179.096
 C      3   2   1   3.076026   119.935   180.365
 C      7   3   2   3.274071   131.344   208.213
 C      8   7   3   3.208322   123.618    83.446
 H      9   8   7   2.187970   106.485   292.609
 H      9   8   7   2.182564   107.266    48.919
 H      8   7   3   2.145837   111.293   309.506
 H      8   7   3   2.210262   101.763   197.331
 H      7   3   2   2.212706   106.422    85.157
 H      7   3   2   2.210051   106.874   331.152
 C      9   8   7   3.090563   116.167   171.754
 C     16   9   8   3.207753   115.355   267.233
 C     17  16   9   3.179282   115.726    91.190
 H     18  17  16   2.185558   109.661   335.781
 H     18  17  16   2.187564   109.256   215.652
 H     18  17  16   2.188065   109.251    95.933
 H     17  16   9   2.178074   107.880   330.106
 H     17  16   9   2.178960   107.842   212.156
 H     16   9   8   2.184752   109.555    28.458
 H     16   9   8   2.187314   109.116   147.126
 C     11   9   8 116.147396   124.201   224.065
 C     26  11   9   2.637448   108.805   281.684
 C     27  26  11   2.701897   114.101   124.052
 C     28  27  26   2.642453   113.693     0.000
 S     26  11   9   3.133260   115.137    39.798
 H     27  26  11   2.152948   122.294   322.071
 C     28  27  26   3.068829   121.484   179.878
 C     32  28  27   3.246000   114.455   308.142
 C     33  32  28   3.240399   133.617   177.191
 H     34  33  32   2.184712   106.339    22.682
 H     34  33  32   2.185505   106.613   138.593
 H     33  32  28   2.135099   103.208    54.188
 H     33  32  28   2.194425   103.002   300.252
 H     32  28  27   2.195370   110.550   187.979
 H     32  28  27   2.193400   109.805    68.448
 C     34  33  32   3.090087   117.699   260.761
 C     41  34  33   3.217981   115.685   279.535
 C     42  41  34   3.183302   119.971   273.456
 H     43  42  41   2.189262   109.069   202.078
 H     43  42  41   2.187589   109.094    82.747
 H     43  42  41   2.183672   109.834   322.297
 H     42  41  34   2.182484   106.532   152.227
 H     42  41  34   2.166191   107.074    34.933
 H     41  34  33   2.185819   109.069   159.456
 H     41  34  33   2.183225   109.400    40.538
 H      1   2   3   2.003117   127.260   180.000
 H      4   3   2   2.003109   127.207   180.000
 H     26  11   9   2.003106    51.901   158.608
 H     29  28  27   2.003116   127.206   180.000

----------------------------
SLATER BASIS SET DIM= 120
----------------------------
  0 C     2 shells
 l=0 nsto= 1
    2       1.625000000000        1.000000000000
 l=1 nsto= 1
    2       1.625000000000        1.000000000000
  1 C     2 shells
 l=0 nsto= 1
    2       1.625000000000        1.000000000000
 l=1 nsto= 1
    2       1.625000000000        1.000000000000
  2 C     2 shells
 l=0 nsto= 1
    2       1.625000000000        1.000000000000
 l=1 nsto= 1
    2       1.625000000000        1.000000000000
  3 C     2 shells
 l=0 nsto= 1
    2       1.625000000000        1.000000000000
 l=1 nsto= 1
    2       1.625000000000        1.000000000000
  4 S     2 shells
 l=0 nsto= 1
    3       1.925000000000        1.000000000000
 l=1 nsto= 1
    3       1.925000000000        1.000000000000
  5 H     1 shells
 l=0 nsto= 1
    1       1.200000000000        1.000000000000
  6 C     2 shells
 l=0 nsto= 1
    2       1.625000000000        1.000000000000
 l=1 nsto= 1
    2       1.625000000000        1.000000000000
  7 C     2 shells
 l=0 nsto= 1
    2       1.625000000000        1.000000000000
 l=1 nsto= 1
    2       1.625000000000        1.000000000000
  8 C     2 shells
 l=0 nsto= 1
    2       1.625000000000        1.000000000000
 l=1 nsto= 1
    2       1.625000000000        1.000000000000
  9 H     1 shells
 l=0 nsto= 1
    1       1.200000000000        1.000000000000
 10 H     1 shells
 l=0 nsto= 1
    1       1.200000000000        1.000000000000
 11 H     1 shells
 l=0 nsto= 1
    1       1.200000000000        1.000000000000
 12 H     1 shells
 l=0 nsto= 1
    1       1.200000000000        1.000000000000
 13 H     1 shells
 l=0 nsto= 1
    1       1.200000000000        1.000000000000
 14 H     1 shells
 l=0 nsto= 1
    1       1.200000000000        1.000000000000
 15 C     2 shells
 l=0 nsto= 1
    2       1.625000000000        1.000000000000
 l=1 nsto= 1
    2       1.625000000000        1.000000000000
 16 C     2 shells
 l=0 nsto= 1
    2       1.625000000000        1.000000000000
 l=1 nsto= 1
    2       1.625000000000        1.000000000000
 17 C     2 shells
 l=0 nsto= 1
    2       1.625000000000        1.000000000000
 l=1 nsto= 1
    2       1.625000000000        1.000000000000
 18 H     1 shells
 l=0 nsto= 1
    1       1.200000000000        1.000000000000
 19 H     1 shells
 l=0 nsto= 1
    1       1.200000000000        1.000000000000
 20 H     1 shells
 l=0 nsto= 1
    1       1.200000000000        1.000000000000
 21 H     1 shells
 l=0 nsto= 1
    1       1.200000000000        1.000000000000
 22 H     1 shells
 l=0 nsto= 1
    1       1.200000000000        1.000000000000
 23 H     1 shells
 l=0 nsto= 1
    1       1.200000000000        1.000000000000
 24 H     1 shells
 l=0 nsto= 1
    1       1.200000000000        1.000000000000
 25 C     2 shells
 l=0 nsto= 1
    2       1.625000000000        1.000000000000
 l=1 nsto= 1
    2       1.625000000000        1.000000000000
 26 C     2 shells
 l=0 nsto= 1
    2       1.625000000000        1.000000000000
 l=1 nsto= 1
    2       1.625000000000        1.000000000000
 27 C     2 shells
 l=0 nsto= 1
    2       1.625000000000        1.000000000000
 l=1 nsto= 1
    2       1.625000000000        1.000000000000
 28 C     2 shells
 l=0 nsto= 1
    2       1.625000000000        1.000000000000
 l=1 nsto= 1
    2       1.625000000000        1.000000000000
 29 S     2 shells
 l=0 nsto= 1
    3       1.925000000000        1.000000000000
 l=1 nsto= 1
    3       1.925000000000        1.000000000000
 30 H     1 shells
 l=0 nsto= 1
    1       1.200000000000        1.000000000000
 31 C     2 shells
 l=0 nsto= 1
    2       1.625000000000        1.000000000000
 l=1 nsto= 1
    2       1.625000000000        1.000000000000
 32 C     2 shells
 l=0 nsto= 1
    2       1.625000000000        1.000000000000
 l=1 nsto= 1
    2       1.625000000000        1.000000000000
 33 C     2 shells
 l=0 nsto= 1
    2       1.625000000000        1.000000000000
 l=1 nsto= 1
    2       1.625000000000        1.000000000000
 34 H     1 shells
 l=0 nsto= 1
    1       1.200000000000        1.000000000000
 35 H     1 shells
 l=0 nsto= 1
    1       1.200000000000        1.000000000000
 36 H     1 shells
 l=0 nsto= 1
    1       1.200000000000        1.000000000000
 37 H     1 shells
 l=0 nsto= 1
    1       1.200000000000        1.000000000000
 38 H     1 shells
 l=0 nsto= 1
    1       1.200000000000        1.000000000000
 39 H     1 shells
 l=0 nsto= 1
    1       1.200000000000        1.000000000000
 40 C     2 shells
 l=0 nsto= 1
    2       1.625000000000        1.000000000000
 l=1 nsto= 1
    2       1.625000000000        1.000000000000
 41 C     2 shells
 l=0 nsto= 1
    2       1.625000000000        1.000000000000
 l=1 nsto= 1
    2       1.625000000000        1.000000000000
 42 C     2 shells
 l=0 nsto= 1
    2       1.625000000000        1.000000000000
 l=1 nsto= 1
    2       1.625000000000        1.000000000000
 43 H     1 shells
 l=0 nsto= 1
    1       1.200000000000        1.000000000000
 44 H     1 shells
 l=0 nsto= 1
    1       1.200000000000        1.000000000000
 45 H     1 shells
 l=0 nsto= 1
    1       1.200000000000        1.000000000000
 46 H     1 shells
 l=0 nsto= 1
    1       1.200000000000        1.000000000000
 47 H     1 shells
 l=0 nsto= 1
    1       1.200000000000        1.000000000000
 48 H     1 shells
 l=0 nsto= 1
    1       1.200000000000        1.000000000000
 49 H     1 shells
 l=0 nsto= 1
    1       1.200000000000        1.000000000000
 50 H     1 shells
 l=0 nsto= 1
    1       1.200000000000        1.000000000000
 51 H     1 shells
 l=0 nsto= 1
    1       1.200000000000        1.000000000000
 52 H     1 shells
 l=0 nsto= 1
    1       1.200000000000        1.000000000000
 53 H     1 shells
 l=0 nsto= 1
    1       1.200000000000        1.000000000000
------------------------------------------------------------------------------
                           ORCA NDO INTEGRAL CALCULATION
------------------------------------------------------------------------------

--------------
NDO PARAMETERS
--------------

Gamma integral treatment              ... Mataga-Nishimoto
Nuclear repulsuion treatment          ... Direct (ZA*ZB/RAB)
Interaction factors:
s-s (sigma) =    1.0000
s-p (sigma) =    1.0000
s-d (sigma) =    1.0000
p-p (sigma) =    1.2670  p-p(pi) =    0.5850
p-d (sigma) =    1.0000  p-d(pi) =    1.0000
d-d (sigma) =    1.0000  d-d(pi) =    1.0000 d-d (delta) =    1.0000

fGamma parameter for Mataga-Nishimoto gamma integrals:    1.2000

--------------------------
Parameters for Element H :
--------------------------
 One-electron parameters (in eV)
  U(s)  =   -13.060000 Beta(s) =    12.000000 Neff(s) =     1.000000
 One-center electron repulsion parameters (in eV)
  G(s,s)=    12.850000
--------------------------
Parameters for Element C :
--------------------------
 One-electron parameters (in eV)
  U(s)  =   -50.870766 Beta(s) =    17.000000 Neff(s) =     2.000000
  U(p)  =   -41.599980 Beta(p) =    17.000000 Neff(p) =     2.000000 
 One-center electron repulsion parameters (in eV)
  G(s,s)=    11.110000
  G(s,p)=    11.110000 G(p,p)  =    11.110000
 Slater-Condon parameters (in eV)
 F2(p,p)=     4.5098 G1(s,p)=    6.8977
--------------------------
Parameters for Element S :
--------------------------
 One-electron parameters (in eV)
  U(s)  =   -69.509597 Beta(s) =    15.000000 Neff(s) =     2.000000
  U(p)  =   -60.725746 Beta(p) =    15.000000 Neff(p) =     4.000000 
 One-center electron repulsion parameters (in eV)
  G(s,s)=    10.090000
  G(s,p)=    10.090000 G(p,p)  =    10.090000
 Slater-Condon parameters (in eV)
 F2(p,p)=     4.5377 G1(s,p)=    3.0756

 Number of atoms                    ....   54
 Number of basis functions          ....  120

 Overlap integrals                  .... done
 One electron matrix                .... done
 Nuclear repulsion                  .... done
 Integral list                      .... done
 Electron-electron repulsion        .... done
-------------------------------------------------------------------------------
                                 ORCA SCF
-------------------------------------------------------------------------------

------------
SCF SETTINGS
------------
Hamiltonian:
 ZDO-Hamiltonian        Method          .... INDO


General Settings:
 Integral files         IntName         .... /Users/mattyjones/GoogleDrive/Boise/Code/MorphCT/tests/output_EZ/donor_polymer/chromophores/input_orca/pair/00012-00025
 Hartree-Fock type      HFTyp           .... RHF
 Total Charge           Charge          ....    0
 Multiplicity           Mult            ....    1
 Number of Electrons    NEL             ....  124
 Basis Dimension        Dim             ....  120
 Nuclear Repulsion      ENuc            ....    612.7648814365 Eh

Convergence Acceleration:
 DIIS                   CNVDIIS         .... on
   Start iteration      DIISMaxIt       ....    12
   Startup error        DIISStart       ....  0.200000
   # of expansion vecs  DIISMaxEq       ....     5
   Bias factor          DIISBfac        ....   1.050
   Max. coefficient     DIISMaxC        ....  10.000
 Newton-Raphson         CNVNR           .... off
 SOSCF                  CNVSOSCF        .... on
   Start iteration      SOSCFMaxIt      ....   150
   Startup grad/error   SOSCFStart      ....  0.003300
 Level Shifting         CNVShift        .... on
   Level shift para.    LevelShift      ....    0.2500
   Turn off err/grad.   ShiftErr        ....    0.0010
 Zerner damping         CNVZerner       .... off
 Static damping         CNVDamp         .... on
   Fraction old density DampFac         ....    0.7000
   Max. Damping (<1)    DampMax         ....    0.9800
   Min. Damping (>=0)   DampMin         ....    0.0000
   Turn off err/grad.   DampErr         ....    0.1000
 Fernandez-Rico         CNVRico         .... off

SCF Procedure:
 Maximum # iterations   MaxIter         ....   125
 SCF integral mode      SCFMode         .... Conventional
 Integral Buffer length BufferLength    .... 1048576
 Integral index format  IndFormat       ....     0
 Integral value format  ValFormat       ....     0
 Integral Storage       Thresh          ....  1.000e-08 Eh

Convergence Tolerance:
 Convergence Check Mode ConvCheckMode   .... Total+1el-Energy
 Energy Change          TolE            ....  1.000e-06 Eh
 1-El. energy change                    ....  1.000e-03 Eh
 Orbital Gradient       TolG            ....  5.000e-05
 Orbital Rotation angle TolX            ....  5.000e-05
 DIIS Error             TolErr          ....  1.000e-06


Diagonalization of the overlap matrix:
Smallest eigenvalue                        ... 1.696e-01
Time for diagonalization                   ...    0.003 sec
Threshold for overlap eigenvalues          ... 1.000e-08
Number of eigenvalues below threshold      ... 0
Time for construction of square roots      ...    0.001 sec
Total time needed                          ...    0.004 sec

-------------------------------
INITIAL GUESS: EXTENDED HUECKEL
-------------------------------
EHT matrix was read from disk
EHT matrix was diagonalized
Initial density was built
                      ------------------
                      INITIAL GUESS DONE
                      ------------------

 InCore treatment chosen:
   Memory dedicated               ...    1024 MB
   Memory needed                  ...      0 MB
   Number of tiny    integrals    ...       0
   Number of small   integrals    ...       0
   Number of regular integrals    ...    7392

--------------
SCF ITERATIONS
--------------
ITER       Energy         Delta-E        Max-DP      RMS-DP      [F,P]     Damp
  0    -20.9793058668   0.000000000000 0.04366816  0.00145168  0.1131309 0.7000
  1    -21.0212017515  -0.041895884756 0.04285779  0.00136768  0.0772110 0.7000
                               ***Turning on DIIS***
  2    -21.0521950914  -0.030993339893 0.11372663  0.00351087  0.0490026 0.0000
  3    -21.1342174705  -0.082022379109 0.02023247  0.00073485  0.0220413 0.0000
  4    -21.1175002588   0.016717211739 0.01502930  0.00050272  0.0083419 0.0000
  5    -21.1352557314  -0.017755472615 0.01061800  0.00034003  0.0049626 0.0000
  6    -21.1372751731  -0.002019441657 0.00775670  0.00024128  0.0028391 0.0000
                      *** Initiating the SOSCF procedure ***
                           *** Shutting down DIIS ***
                      *** Re-Reading the Fockian *** 
                      *** Removing any level shift *** 
ITER      Energy       Delta-E        Grad      Rot      Max-DP    RMS-DP
  7    -21.13346013   0.0038150474  0.003037  0.003037  0.004647  0.000136
  8    -21.13166016   0.0017999621  0.000818  0.002256  0.002296  0.000062
  9    -21.13167475  -0.0000145913  0.000361  0.002213  0.002566  0.000066
 10    -21.13168013  -0.0000053723  0.000029  0.000064  0.000136  0.000004
                 **** Energy Check signals convergence ****
              ***Rediagonalizing the Fockian in SOSCF/NRSCF***

               *****************************************************
               *                     SUCCESS                       *
               *           SCF CONVERGED AFTER  11 CYCLES          *
               *****************************************************


----------------
TOTAL SCF ENERGY
----------------

Total Energy       :          -21.13168017 Eh            -575.02225 eV

Components:
Nuclear Repulsion  :          612.76488144 Eh           16674.18012 eV
Electronic Energy  :         -633.89656161 Eh          -17249.20237 eV

One Electron Energy:        -1177.45493027 Eh          -32040.17754 eV
Two Electron Energy:          543.55836866 Eh           14790.97517 eV


---------------
SCF CONVERGENCE
---------------

  Last Energy change         ...   -4.6595e-08  Tolerance :   1.0000e-06
  Last MAX-Density change    ...    4.2264e-05  Tolerance :   1.0000e-05
  Last RMS-Density change    ...    1.3130e-06  Tolerance :   1.0000e-06
  Last Orbital Gradient      ...    8.3065e-06  Tolerance :   5.0000e-05
  Last Orbital Rotation      ...    2.1642e-05  Tolerance :   5.0000e-05

             **** THE GBW FILE WAS UPDATED (/Users/mattyjones/GoogleDrive/Boise/Code/MorphCT/tests/output_EZ/donor_polymer/chromophores/input_orca/pair/00012-00025.gbw) ****
             **** DENSITY FILE WAS UPDATED (/Users/mattyjones/GoogleDrive/Boise/Code/MorphCT/tests/output_EZ/donor_polymer/chromophores/input_orca/pair/00012-00025.scfp.tmp) ****
             **** ENERGY FILE WAS UPDATED (/Users/mattyjones/GoogleDrive/Boise/Code/MorphCT/tests/output_EZ/donor_polymer/chromophores/input_orca/pair/00012-00025.en.tmp) ****
----------------
ORBITAL ENERGIES
----------------

  NO   OCC          E(Eh)            E(eV) 
   0   2.0000      -1.558002       -42.3954 
   1   2.0000      -1.554649       -42.3042 
   2   2.0000      -1.397488       -38.0276 
   3   2.0000      -1.390172       -37.8285 
   4   2.0000      -1.283197       -34.9176 
   5   2.0000      -1.275804       -34.7164 
   6   2.0000      -1.186364       -32.2826 
   7   2.0000      -1.179172       -32.0869 
   8   2.0000      -1.116156       -30.3721 
   9   2.0000      -1.111841       -30.2547 
  10   2.0000      -1.061112       -28.8743 
  11   2.0000      -1.036829       -28.2135 
  12   2.0000      -0.960867       -26.1465 
  13   2.0000      -0.959947       -26.1215 
  14   2.0000      -0.919268       -25.0145 
  15   2.0000      -0.877667       -23.8825 
  16   2.0000      -0.863882       -23.5074 
  17   2.0000      -0.844573       -22.9820 
  18   2.0000      -0.839798       -22.8521 
  19   2.0000      -0.825436       -22.4613 
  20   2.0000      -0.785627       -21.3780 
  21   2.0000      -0.770713       -20.9722 
  22   2.0000      -0.727543       -19.7974 
  23   2.0000      -0.713338       -19.4109 
  24   2.0000      -0.706440       -19.2232 
  25   2.0000      -0.696857       -18.9624 
  26   2.0000      -0.684039       -18.6137 
  27   2.0000      -0.667587       -18.1660 
  28   2.0000      -0.633857       -17.2481 
  29   2.0000      -0.626242       -17.0409 
  30   2.0000      -0.623571       -16.9682 
  31   2.0000      -0.613048       -16.6819 
  32   2.0000      -0.601593       -16.3702 
  33   2.0000      -0.586841       -15.9687 
  34   2.0000      -0.578627       -15.7452 
  35   2.0000      -0.575808       -15.6685 
  36   2.0000      -0.567537       -15.4435 
  37   2.0000      -0.563422       -15.3315 
  38   2.0000      -0.557419       -15.1681 
  39   2.0000      -0.553245       -15.0546 
  40   2.0000      -0.542975       -14.7751 
  41   2.0000      -0.524557       -14.2739 
  42   2.0000      -0.524064       -14.2605 
  43   2.0000      -0.519904       -14.1473 
  44   2.0000      -0.506757       -13.7896 
  45   2.0000      -0.505021       -13.7423 
  46   2.0000      -0.496482       -13.5100 
  47   2.0000      -0.494304       -13.4507 
  48   2.0000      -0.488364       -13.2891 
  49   2.0000      -0.487251       -13.2588 
  50   2.0000      -0.483213       -13.1489 
  51   2.0000      -0.478057       -13.0086 
  52   2.0000      -0.472077       -12.8459 
  53   2.0000      -0.468766       -12.7558 
  54   2.0000      -0.456740       -12.4285 
  55   2.0000      -0.449851       -12.2411 
  56   2.0000      -0.435218       -11.8429 
  57   2.0000      -0.435207       -11.8426 
  58   2.0000      -0.357464        -9.7271 
  59   2.0000      -0.356026        -9.6880 
  60   2.0000      -0.305667        -8.3176 
  61   2.0000      -0.305565        -8.3149 
  62   0.0000       0.006452         0.1756 
  63   0.0000       0.007252         0.1973 
  64   0.0000       0.059757         1.6261 
  65   0.0000       0.061906         1.6845 
  66   0.0000       0.070167         1.9093 
  67   0.0000       0.073850         2.0096 
  68   0.0000       0.086497         2.3537 
  69   0.0000       0.086497         2.3537 
  70   0.0000       0.103330         2.8118 
  71   0.0000       0.103438         2.8147 
  72   0.0000       0.106758         2.9050 
  73   0.0000       0.106937         2.9099 
  74   0.0000       0.123479         3.3600 
  75   0.0000       0.125303         3.4097 
  76   0.0000       0.141577         3.8525 
  77   0.0000       0.143098         3.8939 
  78   0.0000       0.159746         4.3469 
  79   0.0000       0.160846         4.3768 
  80   0.0000       0.165357         4.4996 
  81   0.0000       0.166628         4.5342 
  82   0.0000       0.170613         4.6426 
  83   0.0000       0.173010         4.7079 
  84   0.0000       0.203059         5.5255 
  85   0.0000       0.204341         5.5604 
  86   0.0000       0.228495         6.2177 
  87   0.0000       0.233330         6.3492 
  88   0.0000       0.233719         6.3598 
  89   0.0000       0.234356         6.3772 
  90   0.0000       0.235531         6.4091 
  91   0.0000       0.236314         6.4304 
  92   0.0000       0.237849         6.4722 
  93   0.0000       0.238424         6.4878 
  94   0.0000       0.239738         6.5236 
  95   0.0000       0.240042         6.5319 
  96   0.0000       0.241812         6.5800 
  97   0.0000       0.242226         6.5913 
  98   0.0000       0.244787         6.6610 
  99   0.0000       0.245938         6.6923 
 100   0.0000       0.250826         6.8253 
 101   0.0000       0.253227         6.8907 
 102   0.0000       0.254193         6.9169 
 103   0.0000       0.257302         7.0015 
 104   0.0000       0.266197         7.2436 
 105   0.0000       0.266314         7.2468 
 106   0.0000       0.277641         7.5550 
 107   0.0000       0.282693         7.6925 
 108   0.0000       0.304424         8.2838 
 109   0.0000       0.309442         8.4204 
 110   0.0000       0.310073         8.4375 
 111   0.0000       0.312174         8.4947 
 112   0.0000       0.338176         9.2022 
 113   0.0000       0.339874         9.2485 
 114   0.0000       0.353266         9.6128 
 115   0.0000       0.354846         9.6558 
 116   0.0000       0.412311        11.2196 
 117   0.0000       0.413985        11.2651 
 118   0.0000       0.427588        11.6353 
 119   0.0000       0.430187        11.7060 
-------
TIMINGS
-------

Total SCF time: 0 days 0 hours 0 min 0 sec 

Total time                  ....       0.133 sec
Sum of individual times     ....       0.106 sec  ( 79.8%)

Fock matrix formation       ....       0.051 sec  ( 38.3%)
Diagonalization             ....       0.024 sec  ( 18.2%)
Density matrix formation    ....       0.006 sec  (  4.2%)
Population analysis         ....       0.000 sec  (  0.0%)
Initial guess               ....       0.003 sec  (  2.2%)
Orbital Transformation      ....       0.000 sec  (  0.0%)
Orbital Orthonormalization  ....       0.000 sec  (  0.0%)
DIIS solution               ....       0.016 sec  ( 12.0%)
SOSCF solution              ....       0.006 sec  (  4.8%)

-------------------------   --------------------
FINAL SINGLE POINT ENERGY       -21.131680173676
-------------------------   --------------------


                            ***************************************
                            *     ORCA property calculations      *
                            ***************************************

                                    ---------------------
                                    Active property flags
                                    ---------------------
   (+) Dipole Moment


------------------------------------------------------------------------------
                       ORCA ELECTRIC PROPERTIES CALCULATION
------------------------------------------------------------------------------

Dipole Moment Calculation                       ... on
Quadrupole Moment Calculation                   ... off
Polarizability Calculation                      ... off
GBWName                                         ... /Users/mattyjones/GoogleDrive/Boise/Code/MorphCT/tests/output_EZ/donor_polymer/chromophores/input_orca/pair/00012-00025.gbw
Electron density file                           ... /Users/mattyjones/GoogleDrive/Boise/Code/MorphCT/tests/output_EZ/donor_polymer/chromophores/input_orca/pair/00012-00025.scfp.tmp

-------------
DIPOLE MOMENT
-------------
                                X             Y             Z
Electronic contribution:    140.48429     232.96324     -56.67682
Nuclear contribution   :    -74.93587    -125.72570      30.86502
                        -----------------------------------------
Total Dipole Moment    :     65.54841     107.23754     -25.81180
                        -----------------------------------------
Magnitude (a.u.)       :    128.30718
Magnitude (Debye)      :    326.13094


Timings for individual modules:

Sum of individual times         ...        0.221 sec (=   0.004 min)
STO integral calculation        ...        0.047 sec (=   0.001 min)  21.3 %
SCF iterations                  ...        0.174 sec (=   0.003 min)  78.7 %
                             ****ORCA TERMINATED NORMALLY****
TOTAL RUN TIME: 0 days 0 hours 0 minutes 0 seconds 522 msec

