
                                 *****************
                                 * O   R   C   A *
                                 *****************

           --- An Ab Initio, DFT and Semiempirical electronic structure package ---

                  #######################################################
                  #                        -***-                        #
                  #  Department of molecular theory and spectroscopy    #
                  #              Directorship: Frank Neese              #
                  # Max Planck Institute for Chemical Energy Conversion #
                  #                  D-45470 Muelheim/Ruhr              #
                  #                       Germany                       #
                  #                                                     #
                  #                  All rights reserved                #
                  #                        -***-                        #
                  #######################################################


                         Program Version 3.0.3 - RELEASE   -


 With contributions from (in alphabetic order):
   Ute Becker             : Parallelization
   Dmytro Bykov           : SCF Hessian
   Dmitry Ganyushin       : Spin-Orbit,Spin-Spin,Magnetic field MRCI
   Andreas Hansen         : Spin unrestricted coupled pair/coupled cluster methods
   Dimitrios Liakos       : Extrapolation schemes; parallel MDCI
   Robert Izsak           : Overlap fitted RIJCOSX, COSX-SCS-MP3
   Christian Kollmar      : KDIIS, OOCD, Brueckner-CCSD(T), CCSD density
   Simone Kossmann        : Meta GGA functionals, TD-DFT gradient, OOMP2, MP2 Hessian
   Taras Petrenko         : DFT Hessian,TD-DFT gradient, ASA and ECA modules, normal mode analysis, Resonance Raman, ABS, FL, XAS/XES, NRVS
   Christoph Reimann      : Effective Core Potentials
   Michael Roemelt        : Restricted open shell CIS
   Christoph Riplinger    : Improved optimizer, TS searches, QM/MM, DLPNO-CCSD
   Barbara Sandhoefer     : DKH picture change effects
   Igor Schapiro          : Molecular dynamics
   Kantharuban Sivalingam : CASSCF convergence, NEVPT2
   Boris Wezisla          : Elementary symmetry handling
   Frank Wennmohs         : Technical directorship


 We gratefully acknowledge several colleagues who have allowed us to
 interface, adapt or use parts of their codes:
   Stefan Grimme, W. Hujo, H. Kruse, T. Risthaus : VdW corrections, initial TS optimization,
                                                   DFT functionals, gCP
   Ed Valeev                                     : LibInt (2-el integral package), F12 methods
   Garnet Chan, S. Sharma, R. Olivares           : DMRG
   Ulf Ekstrom                                   : XCFun DFT Library
   Mihaly Kallay                                 : mrcc  (arbitrary order and MRCC methods)
   Andreas Klamt, Michael Diedenhofen            : otool_cosmo (COSMO solvation model)
   Frank Weinhold                                : gennbo (NPA and NBO analysis)
   Christopher J. Cramer and Donald G. Truhlar   : smd solvation model


 Your calculation uses the libint2 library for the computation of 2-el integrals
 For citations please refer to: http://libint.valeyev.net

 This ORCA versions uses:
   CBLAS   interface :  Fast vector & matrix operations
   LAPACKE interface :  Fast linear algebra routines
   SCALAPACK package :  Parallel linear algebra routines


leaving
================================================================================
                                        WARNINGS
                       Please study these warnings very carefully!
================================================================================
Now building the actual basis set

WARNING: Direct SCF is incompatible with Method<>HF and Method<>DFT
  ===> : conventional SCF is chosen

WARNING: The NDO methods need Guess=HUECKEL or Guess=HCORE or Guess=MOREAD
  ===> : Guess is set to Hueckel

WARNING: The NDO methods need %rel::SOCType==1
  ===> : %rel::SOCType is set to 1

WARNING: The NDO methods cannot have frozencore=1
  ===> : %method FrozenCore=0 end


INFO   : the flag for use of LIBINT has been found!

================================================================================
                                       INPUT FILE
================================================================================
NAME = /Users/mattyjones/GoogleDrive/Boise/Code/MorphCT/tests/output_EZ/donor_polymer/chromophores/input_orca/pair/00013-00023.inp
|  1> # ================================================================
|  2> # Orca input file made by Matty Jones
|  3> # ================================================================
|  4> ! ZINDO/S 
|  5> ! NOPOP
|  6> ! NOMOPRINT
|  7> * xyz 0   1
|  8>  C  27.55080  -8.38562  7.14790
|  9>  C  28.87746  -8.18589  6.76318
| 10>  C  29.83718  -8.73656  7.66870
| 11>  C  29.26547  -9.37432  8.77401
| 12>  S  27.62569  -9.22542  8.57556
| 13>  H  29.35020  -7.19032  6.33340
| 14>  C  31.43082  -8.61158  7.44063
| 15>  C  31.93682  -7.00774  7.17788
| 16>  C  33.55872  -6.58222  6.92674
| 17>  H  34.16594  -7.55952  6.83722
| 18>  H  33.91979  -6.01060  7.86563
| 19>  H  31.37233  -6.64306  6.24147
| 20>  H  31.57939  -6.40308  8.09528
| 21>  H  32.01677  -8.96986  8.37612
| 22>  H  31.75861  -9.24709  6.52868
| 23>  C  33.77492  -5.64668  5.60863
| 24>  C  34.32556  -6.33055  4.16512
| 25>  C  35.13167  -7.79608  4.31750
| 26>  H  35.90616  -7.71962  5.17494
| 27>  H  35.68186  -8.02952  3.32565
| 28>  H  34.37192  -8.63664  4.54839
| 29>  H  33.41078  -6.49950  3.48276
| 30>  H  35.04002  -5.57663  3.66415
| 31>  H  32.77245  -5.12159  5.35415
| 32>  H  34.54291  -4.81986  5.88311
| 33>  C  -28.22942  6.61370  -8.89485
| 34>  C  -29.59213  6.37424  -8.71164
| 35>  C  -30.25654  7.36008  -7.91732
| 36>  C  -29.41422  8.38315  -7.47107
| 37>  S  -27.91285  8.01924  -8.07430
| 38>  H  -30.14139  5.47505  -9.15319
| 39>  C  -31.82195  7.36909  -7.52859
| 40>  C  -32.52717  6.07819  -6.69851
| 41>  C  -32.40908  6.33295  -5.02940
| 42>  H  -32.26950  5.29569  -4.53363
| 43>  H  -31.45552  6.95948  -4.83127
| 44>  H  -33.63744  6.00395  -6.98838
| 45>  H  -31.98002  5.10529  -6.96790
| 46>  H  -32.06715  8.32377  -6.90851
| 47>  H  -32.44041  7.45581  -8.52094
| 48>  C  -33.68972  7.07270  -4.34880
| 49>  C  -33.68930  8.75528  -4.48550
| 50>  C  -34.84082  9.46484  -5.49506
| 51>  H  -34.30883  10.17324  -6.24090
| 52>  H  -35.60616  10.08098  -4.88587
| 53>  H  -35.40154  8.63803  -6.08002
| 54>  H  -33.68983  9.11285  -3.40120
| 55>  H  -32.67886  9.04032  -4.95648
| 56>  H  -34.66447  6.67844  -4.82804
| 57>  H  -33.71128  6.82489  -3.21706
| 58>  H  26.67915  -8.06749  6.63544
| 59>  H  29.77374  -9.85277  9.57173
| 60>  H  -27.54182  6.02180  -9.44301
| 61>  H  -29.67972  9.21675  -6.87255
| 62> *
| 63> 
| 64>                          ****END OF INPUT****
================================================================================

                       ****************************
                       * Single Point Calculation *
                       ****************************

---------------------------------
CARTESIAN COORDINATES (ANGSTROEM)
---------------------------------
  C     27.550800   -8.385620    7.147900
  C     28.877460   -8.185890    6.763180
  C     29.837180   -8.736560    7.668700
  C     29.265470   -9.374320    8.774010
  S     27.625690   -9.225420    8.575560
  H     29.350200   -7.190320    6.333400
  C     31.430820   -8.611580    7.440630
  C     31.936820   -7.007740    7.177880
  C     33.558720   -6.582220    6.926740
  H     34.165940   -7.559520    6.837220
  H     33.919790   -6.010600    7.865630
  H     31.372330   -6.643060    6.241470
  H     31.579390   -6.403080    8.095280
  H     32.016770   -8.969860    8.376120
  H     31.758610   -9.247090    6.528680
  C     33.774920   -5.646680    5.608630
  C     34.325560   -6.330550    4.165120
  C     35.131670   -7.796080    4.317500
  H     35.906160   -7.719620    5.174940
  H     35.681860   -8.029520    3.325650
  H     34.371920   -8.636640    4.548390
  H     33.410780   -6.499500    3.482760
  H     35.040020   -5.576630    3.664150
  H     32.772450   -5.121590    5.354150
  H     34.542910   -4.819860    5.883110
  C    -28.229420    6.613700   -8.894850
  C    -29.592130    6.374240   -8.711640
  C    -30.256540    7.360080   -7.917320
  C    -29.414220    8.383150   -7.471070
  S    -27.912850    8.019240   -8.074300
  H    -30.141390    5.475050   -9.153190
  C    -31.821950    7.369090   -7.528590
  C    -32.527170    6.078190   -6.698510
  C    -32.409080    6.332950   -5.029400
  H    -32.269500    5.295690   -4.533630
  H    -31.455520    6.959480   -4.831270
  H    -33.637440    6.003950   -6.988380
  H    -31.980020    5.105290   -6.967900
  H    -32.067150    8.323770   -6.908510
  H    -32.440410    7.455810   -8.520940
  C    -33.689720    7.072700   -4.348800
  C    -33.689300    8.755280   -4.485500
  C    -34.840820    9.464840   -5.495060
  H    -34.308830   10.173240   -6.240900
  H    -35.606160   10.080980   -4.885870
  H    -35.401540    8.638030   -6.080020
  H    -33.689830    9.112850   -3.401200
  H    -32.678860    9.040320   -4.956480
  H    -34.664470    6.678440   -4.828040
  H    -33.711280    6.824890   -3.217060
  H     26.679150   -8.067490    6.635440
  H     29.773740   -9.852770    9.571730
  H    -27.541820    6.021800   -9.443010
  H    -29.679720    9.216750   -6.872550

----------------------------
CARTESIAN COORDINATES (A.U.)
----------------------------
  NO LB      ZA    FRAG    MASS        X           Y           Z
   0 C     4.0000    0    12.011         52.063466770437621        -15.846525263132726         13.507573432655715
   1 C     4.0000    0    12.011         54.570490843265588        -15.469090262404636         12.780557994413531
   2 C     4.0000    0    12.011         56.384098808512491        -16.509705752571051         14.491742803201904
   3 C     4.0000    0    12.011         55.303723480488372        -17.714897491740668         16.580475996286403
   4 S     6.0000    0    32.060         52.204988360606983        -17.433517270399793         16.205459845009727
   5 H     1.0000    0     1.008         55.463839975815524        -13.587735615256653         11.968391496576855
   6 C     4.0000    0    12.011         59.395641964574757        -16.273527780353572         14.060752963838482
   7 C     4.0000    0    12.011         60.351843388338914        -13.242709417725312         13.564227422150674
   8 C     4.0000    0    12.011         63.416790204945791        -12.438593153219141         13.089641600877689
   9 H     1.0000    0     1.008         64.564269707985446        -14.285422503900380         12.920473317369060
  10 H     1.0000    0     1.008         64.099113620120733        -11.358387900547076         14.863886570755016
  11 H     1.0000    0     1.008         59.285111883001704        -12.553564091206910         11.794668973085473
  12 H     1.0000    0     1.008         59.676398576291433        -12.100067613588488         15.297862177410032
  13 H     1.0000    0     1.008         60.502926992745913        -16.950578859614879         15.828572864860474
  14 H     1.0000    0     1.008         60.015075294012803        -17.474467635721869         12.337417216008996
  15 C     4.0000    0    12.011         63.825348995099567        -10.670678765890454         10.598774686494750
  16 C     4.0000    0    12.011         64.865907793481966        -11.963005777095178          7.870936114918083
  17 C     4.0000    0    12.011         66.389234927297224        -14.732456118140792          8.158892583205004
  18 H     1.0000    0     1.008         67.852808920757894        -14.587967657941173          9.779219359474443
  19 H     1.0000    0     1.008         67.428943348919347        -15.173593786843368          6.284567717275211
  20 H     1.0000    0     1.008         64.953515497050560        -16.320884317269638          8.595211450266083
  21 H     1.0000    0     1.008         63.137224120693482        -12.282275007421175          6.581462590175578
  22 H     1.0000    0     1.008         66.216041527123338        -10.538303450209270          6.924240013607553
  23 H     1.0000    0     1.008         61.930955237627522         -9.678402470229743         10.117877179934469
  24 H     1.0000    0     1.008         65.276639768689748         -9.108215403841685         11.117466715733455
  25 C     4.0000    0    12.011        -53.345872719439264         12.498081731914981        -16.808830502309444
  26 C     4.0000    0    12.011        -55.921021419395089         12.045567911886200        -16.462613777313731
  27 C     4.0000    0    12.011        -57.176574360033712         13.908535523751127        -14.961566514617404
  28 C     4.0000    0    12.011        -55.584820242909160         15.841857639581942        -14.118276227355047
  29 S     6.0000    0    32.060        -52.747642117223805         15.154167402186658        -15.258215723120360
  30 H     1.0000    0     1.008        -56.958972395712678         10.346345069525549        -17.297022351746662
  31 C     4.0000    0    12.011        -60.134770547335378         13.925561956217756        -14.226973274578196
  32 C     4.0000    0    12.011        -61.467443211499315         11.486114489938814        -12.658349405332842
  33 C     4.0000    0    12.011        -61.244285452344563         11.967541119816591         -9.504188617943543
  34 H     1.0000    0     1.008        -60.980517478571834         10.007403790145432         -8.567319092529404
  35 H     1.0000    0     1.008        -59.442318200082610         13.151511234502273         -9.129777179029725
  36 H     1.0000    0     1.008        -63.565549446208067         11.345821221756498        -13.206124319772597
  37 H     1.0000    0     1.008        -60.433479557324304          9.647599934246827        -13.167422728549889
  38 H     1.0000    0     1.008        -60.598131395372860         15.729645701749696        -13.055191893456305
  39 H     1.0000    0     1.008        -61.303490572120310         14.089439006551407        -16.102243003574948
  40 C     4.0000    0    12.011        -63.664344328489470         13.365466027384837         -8.218041011196739
  41 C     4.0000    0    12.011        -63.663550643513226         16.545081425798056         -8.476366573703775
  42 C     4.0000    0    12.011        -65.839608081246226         17.885955501383222        -10.384158489465312
  43 H     1.0000    0     1.008        -64.834292675261452         19.224637494653035        -11.793591829189140
  44 H     1.0000    0     1.008        -67.285891080581521         19.050291361537461         -9.232956225941825
  45 H     1.0000    0     1.008        -66.899215319058541         16.323511036595789        -11.489572688763889
  46 H     1.0000    0     1.008        -63.664552198364206         17.220790799504279         -6.427336526692961
  47 H     1.0000    0     1.008        -61.754095768753835         17.083728963010969         -9.366389788258006
  48 H     1.0000    0     1.008        -65.506354877529219         12.620422601825044         -9.123673363617160
  49 H     1.0000    0     1.008        -63.705086823936817         12.897172994137811         -6.079362356392702
  50 H     1.0000    0     1.008         50.416286985805158        -15.245346688148357         12.539164378066429
  51 H     1.0000    0     1.008         56.264214582576528        -18.619036960515292         18.087948327838063
  52 H     1.0000    0     1.008        -52.046497029755010         11.379552833246994        -17.844702779879718
  53 H     1.0000    0     1.008        -56.086542531465248         17.417133344818694        -12.987237341680499

--------------------------------
INTERNAL COORDINATES (ANGSTROEM)
--------------------------------
 C      0   0   0   0.000000     0.000     0.000
 C      1   0   0   1.395682     0.000     0.000
 C      2   1   0   1.429778   114.101     0.000
 C      3   2   1   1.398321   113.693     0.000
 S      1   2   3   1.658037   105.480     0.000
 H      2   1   3   1.182943   126.902   223.306
 C      3   2   1   1.614721   122.902   180.820
 C      7   3   2   1.702168   112.838    52.416
 C      8   7   3   1.695493   122.936   179.315
 H      9   8   7   1.154056   107.595     7.097
 H      9   8   7   1.156994   107.597   250.378
 H      8   7   3   1.152608   106.137   300.701
 H      8   7   3   1.155419   106.175    56.768
 H      7   3   2   1.160536   111.134   170.536
 H      7   3   2   1.158867   110.357   291.327
 C      9   8   7   1.630764   112.987   129.590
 C     16   9   8   1.689557   120.104   259.813
 C     17  16   9   1.679527   115.601   338.725
 H     18  17  16   1.157966   109.304   313.347
 H     18  17  16   1.158002   109.040   193.973
 H     18  17  16   1.156318   109.698    73.851
 H     17  16   9   1.153682   107.829    99.460
 H     17  16   9   1.153178   107.966   217.415
 H     16   9   8   1.159925   108.811    22.246
 H     16   9   8   1.161370   107.762   138.549
 C      1   2   3  59.948164   140.795   174.152
 C     26   1   2   1.395667   146.144   168.717
 C     27  26   1   1.429778   114.101   103.315
 C     28  27  26   1.398326   113.693     0.000
 S     26   1   2   1.658029    84.376   278.267
 H     27  26   1   1.142452   123.623   283.208
 C     28  27  26   1.612979   126.067   179.878
 C     32  28  27   1.689021   121.291    58.033
 C     33  32  28   1.692565   109.906    89.569
 H     34  33  32   1.158093   107.203   214.082
 H     34  33  32   1.158047   107.915   330.406
 H     33  32  28   1.149885   109.184   209.088
 H     33  32  28   1.148250   109.470   329.875
 H     32  28  27   1.164490   109.710   182.230
 H     32  28  27   1.172507   107.960   297.548
 C     34  33  32   1.628031   115.199    92.806
 C     41  34  33   1.688124   114.762   277.563
 C     42  41  34   1.687805   117.859   110.559
 H     43  42  41   1.158068   109.207   232.501
 H     43  42  41   1.156065   111.133   112.826
 H     43  42  41   1.157670   109.417   352.353
 H     42  41  34   1.141737   103.606   240.010
 H     42  41  34   1.150678   106.276   353.875
 H     41  34  33   1.155530   109.581    39.067
 H     41  34  33   1.158754   109.012   157.607
 H      1   2   3   1.059998   127.260   180.000
 H      4   3   2   1.060005   127.206   180.000
 H     26   1   2   1.060009    52.779    65.278
 H     29  28  27   1.060003   127.206   180.000

---------------------------
INTERNAL COORDINATES (A.U.)
---------------------------
 C      0   0   0   0.000000     0.000     0.000
 C      1   0   0   2.637457     0.000     0.000
 C      2   1   0   2.701890   114.101     0.000
 C      3   2   1   2.642443   113.693     0.000
 S      1   2   3   3.133235   105.480     0.000
 H      2   1   3   2.235438   126.902   223.306
 C      3   2   1   3.051381   122.902   180.820
 C      7   3   2   3.216632   112.838    52.416
 C      8   7   3   3.204018   122.936   179.315
 H      9   8   7   2.180850   107.595     7.097
 H      9   8   7   2.186402   107.597   250.378
 H      8   7   3   2.178113   106.137   300.701
 H      8   7   3   2.183425   106.175    56.768
 H      7   3   2   2.193095   111.134   170.536
 H      7   3   2   2.189941   110.357   291.327
 C      9   8   7   3.081698   112.987   129.590
 C     16   9   8   3.192800   120.104   259.813
 C     17  16   9   3.173846   115.601   338.725
 H     18  17  16   2.188238   109.304   313.347
 H     18  17  16   2.188308   109.040   193.973
 H     18  17  16   2.185124   109.698    73.851
 H     17  16   9   2.180143   107.829    99.460
 H     17  16   9   2.179191   107.966   217.415
 H     16   9   8   2.191940   108.811    22.246
 H     16   9   8   2.194670   107.762   138.549
 C      1   2   3 113.285612   140.795   174.152
 C     26   1   2   2.637428   146.144   168.717
 C     27  26   1   2.701889   114.101   103.315
 C     28  27  26   2.642452   113.693     0.000
 S     26   1   2   3.133222    84.376   278.267
 H     27  26   1   2.158921   123.623   283.208
 C     28  27  26   3.048088   126.067   179.878
 C     32  28  27   3.191787   121.291    58.033
 C     33  32  28   3.198484   109.906    89.569
 H     34  33  32   2.188478   107.203   214.082
 H     34  33  32   2.188391   107.915   330.406
 H     33  32  28   2.172968   109.184   209.088
 H     33  32  28   2.169878   109.470   329.875
 H     32  28  27   2.200567   109.710   182.230
 H     32  28  27   2.215716   107.960   297.548
 C     34  33  32   3.076533   115.199    92.806
 C     41  34  33   3.190092   114.762   277.563
 C     42  41  34   3.189489   117.859   110.559
 H     43  42  41   2.188431   109.207   232.501
 H     43  42  41   2.184646   111.133   112.826
 H     43  42  41   2.187679   109.417   352.353
 H     42  41  34   2.157570   103.606   240.010
 H     42  41  34   2.174466   106.276   353.875
 H     41  34  33   2.183635   109.581    39.067
 H     41  34  33   2.189727   109.012   157.607
 H      1   2   3   2.003106   127.260   180.000
 H      4   3   2   2.003119   127.206   180.000
 H     26   1   2   2.003126    52.779    65.278
 H     29  28  27   2.003115   127.206   180.000

----------------------------
SLATER BASIS SET DIM= 120
----------------------------
  0 C     2 shells
 l=0 nsto= 1
    2       1.625000000000        1.000000000000
 l=1 nsto= 1
    2       1.625000000000        1.000000000000
  1 C     2 shells
 l=0 nsto= 1
    2       1.625000000000        1.000000000000
 l=1 nsto= 1
    2       1.625000000000        1.000000000000
  2 C     2 shells
 l=0 nsto= 1
    2       1.625000000000        1.000000000000
 l=1 nsto= 1
    2       1.625000000000        1.000000000000
  3 C     2 shells
 l=0 nsto= 1
    2       1.625000000000        1.000000000000
 l=1 nsto= 1
    2       1.625000000000        1.000000000000
  4 S     2 shells
 l=0 nsto= 1
    3       1.925000000000        1.000000000000
 l=1 nsto= 1
    3       1.925000000000        1.000000000000
  5 H     1 shells
 l=0 nsto= 1
    1       1.200000000000        1.000000000000
  6 C     2 shells
 l=0 nsto= 1
    2       1.625000000000        1.000000000000
 l=1 nsto= 1
    2       1.625000000000        1.000000000000
  7 C     2 shells
 l=0 nsto= 1
    2       1.625000000000        1.000000000000
 l=1 nsto= 1
    2       1.625000000000        1.000000000000
  8 C     2 shells
 l=0 nsto= 1
    2       1.625000000000        1.000000000000
 l=1 nsto= 1
    2       1.625000000000        1.000000000000
  9 H     1 shells
 l=0 nsto= 1
    1       1.200000000000        1.000000000000
 10 H     1 shells
 l=0 nsto= 1
    1       1.200000000000        1.000000000000
 11 H     1 shells
 l=0 nsto= 1
    1       1.200000000000        1.000000000000
 12 H     1 shells
 l=0 nsto= 1
    1       1.200000000000        1.000000000000
 13 H     1 shells
 l=0 nsto= 1
    1       1.200000000000        1.000000000000
 14 H     1 shells
 l=0 nsto= 1
    1       1.200000000000        1.000000000000
 15 C     2 shells
 l=0 nsto= 1
    2       1.625000000000        1.000000000000
 l=1 nsto= 1
    2       1.625000000000        1.000000000000
 16 C     2 shells
 l=0 nsto= 1
    2       1.625000000000        1.000000000000
 l=1 nsto= 1
    2       1.625000000000        1.000000000000
 17 C     2 shells
 l=0 nsto= 1
    2       1.625000000000        1.000000000000
 l=1 nsto= 1
    2       1.625000000000        1.000000000000
 18 H     1 shells
 l=0 nsto= 1
    1       1.200000000000        1.000000000000
 19 H     1 shells
 l=0 nsto= 1
    1       1.200000000000        1.000000000000
 20 H     1 shells
 l=0 nsto= 1
    1       1.200000000000        1.000000000000
 21 H     1 shells
 l=0 nsto= 1
    1       1.200000000000        1.000000000000
 22 H     1 shells
 l=0 nsto= 1
    1       1.200000000000        1.000000000000
 23 H     1 shells
 l=0 nsto= 1
    1       1.200000000000        1.000000000000
 24 H     1 shells
 l=0 nsto= 1
    1       1.200000000000        1.000000000000
 25 C     2 shells
 l=0 nsto= 1
    2       1.625000000000        1.000000000000
 l=1 nsto= 1
    2       1.625000000000        1.000000000000
 26 C     2 shells
 l=0 nsto= 1
    2       1.625000000000        1.000000000000
 l=1 nsto= 1
    2       1.625000000000        1.000000000000
 27 C     2 shells
 l=0 nsto= 1
    2       1.625000000000        1.000000000000
 l=1 nsto= 1
    2       1.625000000000        1.000000000000
 28 C     2 shells
 l=0 nsto= 1
    2       1.625000000000        1.000000000000
 l=1 nsto= 1
    2       1.625000000000        1.000000000000
 29 S     2 shells
 l=0 nsto= 1
    3       1.925000000000        1.000000000000
 l=1 nsto= 1
    3       1.925000000000        1.000000000000
 30 H     1 shells
 l=0 nsto= 1
    1       1.200000000000        1.000000000000
 31 C     2 shells
 l=0 nsto= 1
    2       1.625000000000        1.000000000000
 l=1 nsto= 1
    2       1.625000000000        1.000000000000
 32 C     2 shells
 l=0 nsto= 1
    2       1.625000000000        1.000000000000
 l=1 nsto= 1
    2       1.625000000000        1.000000000000
 33 C     2 shells
 l=0 nsto= 1
    2       1.625000000000        1.000000000000
 l=1 nsto= 1
    2       1.625000000000        1.000000000000
 34 H     1 shells
 l=0 nsto= 1
    1       1.200000000000        1.000000000000
 35 H     1 shells
 l=0 nsto= 1
    1       1.200000000000        1.000000000000
 36 H     1 shells
 l=0 nsto= 1
    1       1.200000000000        1.000000000000
 37 H     1 shells
 l=0 nsto= 1
    1       1.200000000000        1.000000000000
 38 H     1 shells
 l=0 nsto= 1
    1       1.200000000000        1.000000000000
 39 H     1 shells
 l=0 nsto= 1
    1       1.200000000000        1.000000000000
 40 C     2 shells
 l=0 nsto= 1
    2       1.625000000000        1.000000000000
 l=1 nsto= 1
    2       1.625000000000        1.000000000000
 41 C     2 shells
 l=0 nsto= 1
    2       1.625000000000        1.000000000000
 l=1 nsto= 1
    2       1.625000000000        1.000000000000
 42 C     2 shells
 l=0 nsto= 1
    2       1.625000000000        1.000000000000
 l=1 nsto= 1
    2       1.625000000000        1.000000000000
 43 H     1 shells
 l=0 nsto= 1
    1       1.200000000000        1.000000000000
 44 H     1 shells
 l=0 nsto= 1
    1       1.200000000000        1.000000000000
 45 H     1 shells
 l=0 nsto= 1
    1       1.200000000000        1.000000000000
 46 H     1 shells
 l=0 nsto= 1
    1       1.200000000000        1.000000000000
 47 H     1 shells
 l=0 nsto= 1
    1       1.200000000000        1.000000000000
 48 H     1 shells
 l=0 nsto= 1
    1       1.200000000000        1.000000000000
 49 H     1 shells
 l=0 nsto= 1
    1       1.200000000000        1.000000000000
 50 H     1 shells
 l=0 nsto= 1
    1       1.200000000000        1.000000000000
 51 H     1 shells
 l=0 nsto= 1
    1       1.200000000000        1.000000000000
 52 H     1 shells
 l=0 nsto= 1
    1       1.200000000000        1.000000000000
 53 H     1 shells
 l=0 nsto= 1
    1       1.200000000000        1.000000000000
------------------------------------------------------------------------------
                           ORCA NDO INTEGRAL CALCULATION
------------------------------------------------------------------------------

--------------
NDO PARAMETERS
--------------

Gamma integral treatment              ... Mataga-Nishimoto
Nuclear repulsuion treatment          ... Direct (ZA*ZB/RAB)
Interaction factors:
s-s (sigma) =    1.0000
s-p (sigma) =    1.0000
s-d (sigma) =    1.0000
p-p (sigma) =    1.2670  p-p(pi) =    0.5850
p-d (sigma) =    1.0000  p-d(pi) =    1.0000
d-d (sigma) =    1.0000  d-d(pi) =    1.0000 d-d (delta) =    1.0000

fGamma parameter for Mataga-Nishimoto gamma integrals:    1.2000

--------------------------
Parameters for Element H :
--------------------------
 One-electron parameters (in eV)
  U(s)  =   -13.060000 Beta(s) =    12.000000 Neff(s) =     1.000000
 One-center electron repulsion parameters (in eV)
  G(s,s)=    12.850000
--------------------------
Parameters for Element C :
--------------------------
 One-electron parameters (in eV)
  U(s)  =   -50.870766 Beta(s) =    17.000000 Neff(s) =     2.000000
  U(p)  =   -41.599980 Beta(p) =    17.000000 Neff(p) =     2.000000 
 One-center electron repulsion parameters (in eV)
  G(s,s)=    11.110000
  G(s,p)=    11.110000 G(p,p)  =    11.110000
 Slater-Condon parameters (in eV)
 F2(p,p)=     4.5098 G1(s,p)=    6.8977
--------------------------
Parameters for Element S :
--------------------------
 One-electron parameters (in eV)
  U(s)  =   -69.509597 Beta(s) =    15.000000 Neff(s) =     2.000000
  U(p)  =   -60.725746 Beta(p) =    15.000000 Neff(p) =     4.000000 
 One-center electron repulsion parameters (in eV)
  G(s,s)=    10.090000
  G(s,p)=    10.090000 G(p,p)  =    10.090000
 Slater-Condon parameters (in eV)
 F2(p,p)=     4.5377 G1(s,p)=    3.0756

 Number of atoms                    ....   54
 Number of basis functions          ....  120

 Overlap integrals                  .... done
 One electron matrix                .... done
 Nuclear repulsion                  .... done
 Integral list                      .... done
 Electron-electron repulsion        .... done
-------------------------------------------------------------------------------
                                 ORCA SCF
-------------------------------------------------------------------------------

------------
SCF SETTINGS
------------
Hamiltonian:
 ZDO-Hamiltonian        Method          .... INDO


General Settings:
 Integral files         IntName         .... /Users/mattyjones/GoogleDrive/Boise/Code/MorphCT/tests/output_EZ/donor_polymer/chromophores/input_orca/pair/00013-00023
 Hartree-Fock type      HFTyp           .... RHF
 Total Charge           Charge          ....    0
 Multiplicity           Mult            ....    1
 Number of Electrons    NEL             ....  124
 Basis Dimension        Dim             ....  120
 Nuclear Repulsion      ENuc            ....    630.4997324645 Eh

Convergence Acceleration:
 DIIS                   CNVDIIS         .... on
   Start iteration      DIISMaxIt       ....    12
   Startup error        DIISStart       ....  0.200000
   # of expansion vecs  DIISMaxEq       ....     5
   Bias factor          DIISBfac        ....   1.050
   Max. coefficient     DIISMaxC        ....  10.000
 Newton-Raphson         CNVNR           .... off
 SOSCF                  CNVSOSCF        .... on
   Start iteration      SOSCFMaxIt      ....   150
   Startup grad/error   SOSCFStart      ....  0.003300
 Level Shifting         CNVShift        .... on
   Level shift para.    LevelShift      ....    0.2500
   Turn off err/grad.   ShiftErr        ....    0.0010
 Zerner damping         CNVZerner       .... off
 Static damping         CNVDamp         .... on
   Fraction old density DampFac         ....    0.7000
   Max. Damping (<1)    DampMax         ....    0.9800
   Min. Damping (>=0)   DampMin         ....    0.0000
   Turn off err/grad.   DampErr         ....    0.1000
 Fernandez-Rico         CNVRico         .... off

SCF Procedure:
 Maximum # iterations   MaxIter         ....   125
 SCF integral mode      SCFMode         .... Conventional
 Integral Buffer length BufferLength    .... 1048576
 Integral index format  IndFormat       ....     0
 Integral value format  ValFormat       ....     0
 Integral Storage       Thresh          ....  1.000e-08 Eh

Convergence Tolerance:
 Convergence Check Mode ConvCheckMode   .... Total+1el-Energy
 Energy Change          TolE            ....  1.000e-06 Eh
 1-El. energy change                    ....  1.000e-03 Eh
 Orbital Gradient       TolG            ....  5.000e-05
 Orbital Rotation angle TolX            ....  5.000e-05
 DIIS Error             TolErr          ....  1.000e-06


Diagonalization of the overlap matrix:
Smallest eigenvalue                        ... 1.688e-01
Time for diagonalization                   ...    0.003 sec
Threshold for overlap eigenvalues          ... 1.000e-08
Number of eigenvalues below threshold      ... 0
Time for construction of square roots      ...    0.001 sec
Total time needed                          ...    0.004 sec

-------------------------------
INITIAL GUESS: EXTENDED HUECKEL
-------------------------------
EHT matrix was read from disk
EHT matrix was diagonalized
Initial density was built
                      ------------------
                      INITIAL GUESS DONE
                      ------------------

 InCore treatment chosen:
   Memory dedicated               ...    1024 MB
   Memory needed                  ...      0 MB
   Number of tiny    integrals    ...       0
   Number of small   integrals    ...       0
   Number of regular integrals    ...    7392

--------------
SCF ITERATIONS
--------------
ITER       Energy         Delta-E        Max-DP      RMS-DP      [F,P]     Damp
  0    -15.9108222373   0.000000000000 0.04489996  0.00147705  0.1252990 0.7000
  1    -15.9539107462  -0.043088508900 0.04331900  0.00139254  0.0859320 0.7000
                               ***Turning on DIIS***
  2    -15.9857316931  -0.031820946915 0.11280027  0.00357301  0.0523636 0.0000
  3    -16.0691960337  -0.083464340557 0.02001258  0.00074210  0.0225581 0.0000
  4    -16.0529343641   0.016261669649 0.01439909  0.00051453  0.0087255 0.0000
  5    -16.0708238316  -0.017889467562 0.01017407  0.00035000  0.0051522 0.0000
  6    -16.0728258841  -0.002002052516 0.00722765  0.00025070  0.0028384 0.0000
                      *** Initiating the SOSCF procedure ***
                           *** Shutting down DIIS ***
                      *** Re-Reading the Fockian *** 
                      *** Removing any level shift *** 
ITER      Energy       Delta-E        Grad      Rot      Max-DP    RMS-DP
  7    -16.06918598   0.0036399021  0.003232  0.003232  0.004014  0.000144
  8    -16.06717644   0.0020095375  0.000948  0.002695  0.002101  0.000068
  9    -16.06719378  -0.0000173369  0.000418  0.002706  0.002440  0.000075
 10    -16.06720047  -0.0000066919  0.000043  0.000084  0.000136  0.000005
                 **** Energy Check signals convergence ****
              ***Rediagonalizing the Fockian in SOSCF/NRSCF***

               *****************************************************
               *                     SUCCESS                       *
               *           SCF CONVERGED AFTER  11 CYCLES          *
               *****************************************************


----------------
TOTAL SCF ENERGY
----------------

Total Energy       :          -16.06720054 Eh            -437.21075 eV

Components:
Nuclear Repulsion  :          630.49973246 Eh           17156.76995 eV
Electronic Energy  :         -646.56693301 Eh          -17593.98071 eV

One Electron Energy:        -1202.72657158 Eh          -32727.85386 eV
Two Electron Energy:          556.15963857 Eh           15133.87316 eV


---------------
SCF CONVERGENCE
---------------

  Last Energy change         ...   -6.8598e-08  Tolerance :   1.0000e-06
  Last MAX-Density change    ...    6.4069e-05  Tolerance :   1.0000e-05
  Last RMS-Density change    ...    1.7604e-06  Tolerance :   1.0000e-06
  Last Orbital Gradient      ...    1.9450e-05  Tolerance :   5.0000e-05
  Last Orbital Rotation      ...    3.7931e-05  Tolerance :   5.0000e-05

             **** THE GBW FILE WAS UPDATED (/Users/mattyjones/GoogleDrive/Boise/Code/MorphCT/tests/output_EZ/donor_polymer/chromophores/input_orca/pair/00013-00023.gbw) ****
             **** DENSITY FILE WAS UPDATED (/Users/mattyjones/GoogleDrive/Boise/Code/MorphCT/tests/output_EZ/donor_polymer/chromophores/input_orca/pair/00013-00023.scfp.tmp) ****
             **** ENERGY FILE WAS UPDATED (/Users/mattyjones/GoogleDrive/Boise/Code/MorphCT/tests/output_EZ/donor_polymer/chromophores/input_orca/pair/00013-00023.en.tmp) ****
----------------
ORBITAL ENERGIES
----------------

  NO   OCC          E(Eh)            E(eV) 
   0   2.0000      -1.562104       -42.5070 
   1   2.0000      -1.557251       -42.3749 
   2   2.0000      -1.416906       -38.5560 
   3   2.0000      -1.404490       -38.2181 
   4   2.0000      -1.289067       -35.0773 
   5   2.0000      -1.277390       -34.7595 
   6   2.0000      -1.182939       -32.1894 
   7   2.0000      -1.181129       -32.1402 
   8   2.0000      -1.114441       -30.3255 
   9   2.0000      -1.110305       -30.2129 
  10   2.0000      -1.041744       -28.3473 
  11   2.0000      -1.038657       -28.2633 
  12   2.0000      -0.965702       -26.2781 
  13   2.0000      -0.962780       -26.1986 
  14   2.0000      -0.916982       -24.9524 
  15   2.0000      -0.902085       -24.5470 
  16   2.0000      -0.873671       -23.7738 
  17   2.0000      -0.829996       -22.5854 
  18   2.0000      -0.829821       -22.5806 
  19   2.0000      -0.824218       -22.4281 
  20   2.0000      -0.769589       -20.9416 
  21   2.0000      -0.768544       -20.9132 
  22   2.0000      -0.743001       -20.2181 
  23   2.0000      -0.725078       -19.7304 
  24   2.0000      -0.718042       -19.5389 
  25   2.0000      -0.687760       -18.7149 
  26   2.0000      -0.679520       -18.4907 
  27   2.0000      -0.666333       -18.1318 
  28   2.0000      -0.647116       -17.6089 
  29   2.0000      -0.640095       -17.4179 
  30   2.0000      -0.611679       -16.6446 
  31   2.0000      -0.606026       -16.4908 
  32   2.0000      -0.605281       -16.4705 
  33   2.0000      -0.593747       -16.1567 
  34   2.0000      -0.580380       -15.7929 
  35   2.0000      -0.578208       -15.7338 
  36   2.0000      -0.572984       -15.5917 
  37   2.0000      -0.566780       -15.4229 
  38   2.0000      -0.542675       -14.7669 
  39   2.0000      -0.537343       -14.6219 
  40   2.0000      -0.536133       -14.5889 
  41   2.0000      -0.535434       -14.5699 
  42   2.0000      -0.524577       -14.2745 
  43   2.0000      -0.522880       -14.2283 
  44   2.0000      -0.503711       -13.7067 
  45   2.0000      -0.502446       -13.6723 
  46   2.0000      -0.498094       -13.5538 
  47   2.0000      -0.497699       -13.5431 
  48   2.0000      -0.490085       -13.3359 
  49   2.0000      -0.487428       -13.2636 
  50   2.0000      -0.479692       -13.0531 
  51   2.0000      -0.470542       -12.8041 
  52   2.0000      -0.468365       -12.7449 
  53   2.0000      -0.464328       -12.6350 
  54   2.0000      -0.457471       -12.4484 
  55   2.0000      -0.455978       -12.4078 
  56   2.0000      -0.438024       -11.9192 
  57   2.0000      -0.434579       -11.8255 
  58   2.0000      -0.356608        -9.7038 
  59   2.0000      -0.348930        -9.4949 
  60   2.0000      -0.304423        -8.2838 
  61   2.0000      -0.304395        -8.2830 
  62   0.0000       0.002779         0.0756 
  63   0.0000       0.008158         0.2220 
  64   0.0000       0.058458         1.5907 
  65   0.0000       0.071451         1.9443 
  66   0.0000       0.076911         2.0929 
  67   0.0000       0.078778         2.1436 
  68   0.0000       0.087447         2.3796 
  69   0.0000       0.092355         2.5131 
  70   0.0000       0.103950         2.8286 
  71   0.0000       0.104593         2.8461 
  72   0.0000       0.108002         2.9389 
  73   0.0000       0.108305         2.9471 
  74   0.0000       0.124805         3.3961 
  75   0.0000       0.125322         3.4102 
  76   0.0000       0.141079         3.8389 
  77   0.0000       0.144674         3.9368 
  78   0.0000       0.158385         4.3099 
  79   0.0000       0.158877         4.3233 
  80   0.0000       0.165394         4.5006 
  81   0.0000       0.166390         4.5277 
  82   0.0000       0.167928         4.5696 
  83   0.0000       0.179422         4.8823 
  84   0.0000       0.199707         5.4343 
  85   0.0000       0.205722         5.5980 
  86   0.0000       0.230471         6.2714 
  87   0.0000       0.233208         6.3459 
  88   0.0000       0.233723         6.3599 
  89   0.0000       0.236395         6.4326 
  90   0.0000       0.237579         6.4648 
  91   0.0000       0.238197         6.4817 
  92   0.0000       0.239185         6.5085 
  93   0.0000       0.239608         6.5201 
  94   0.0000       0.241120         6.5612 
  95   0.0000       0.241130         6.5615 
  96   0.0000       0.243081         6.6146 
  97   0.0000       0.244348         6.6490 
  98   0.0000       0.245200         6.6722 
  99   0.0000       0.246493         6.7074 
 100   0.0000       0.250746         6.8231 
 101   0.0000       0.257275         7.0008 
 102   0.0000       0.257826         7.0158 
 103   0.0000       0.264352         7.1934 
 104   0.0000       0.265810         7.2331 
 105   0.0000       0.267595         7.2816 
 106   0.0000       0.281100         7.6491 
 107   0.0000       0.285612         7.7719 
 108   0.0000       0.306947         8.3525 
 109   0.0000       0.307317         8.3625 
 110   0.0000       0.309414         8.4196 
 111   0.0000       0.310582         8.4514 
 112   0.0000       0.336375         9.1532 
 113   0.0000       0.342882         9.3303 
 114   0.0000       0.352113         9.5815 
 115   0.0000       0.352748         9.5988 
 116   0.0000       0.408498        11.1158 
 117   0.0000       0.411942        11.2095 
 118   0.0000       0.430798        11.7226 
 119   0.0000       0.432928        11.7806 
-------
TIMINGS
-------

Total SCF time: 0 days 0 hours 0 min 0 sec 

Total time                  ....       0.192 sec
Sum of individual times     ....       0.098 sec  ( 51.0%)

Fock matrix formation       ....       0.047 sec  ( 24.6%)
Diagonalization             ....       0.023 sec  ( 12.1%)
Density matrix formation    ....       0.005 sec  (  2.6%)
Population analysis         ....       0.000 sec  (  0.0%)
Initial guess               ....       0.003 sec  (  1.6%)
Orbital Transformation      ....       0.000 sec  (  0.0%)
Orbital Orthonormalization  ....       0.000 sec  (  0.0%)
DIIS solution               ....       0.013 sec  (  6.8%)
SOSCF solution              ....       0.006 sec  (  3.3%)

-------------------------   --------------------
FINAL SINGLE POINT ENERGY       -16.067200541983
-------------------------   --------------------


                            ***************************************
                            *     ORCA property calculations      *
                            ***************************************

                                    ---------------------
                                    Active property flags
                                    ---------------------
   (+) Dipole Moment


------------------------------------------------------------------------------
                       ORCA ELECTRIC PROPERTIES CALCULATION
------------------------------------------------------------------------------

Dipole Moment Calculation                       ... on
Quadrupole Moment Calculation                   ... off
Polarizability Calculation                      ... off
GBWName                                         ... /Users/mattyjones/GoogleDrive/Boise/Code/MorphCT/tests/output_EZ/donor_polymer/chromophores/input_orca/pair/00013-00023.gbw
Electron density file                           ... /Users/mattyjones/GoogleDrive/Boise/Code/MorphCT/tests/output_EZ/donor_polymer/chromophores/input_orca/pair/00013-00023.scfp.tmp

-------------
DIPOLE MOMENT
-------------
                                X             Y             Z
Electronic contribution:     -0.95531     -39.10788      11.81392
Nuclear contribution   :      5.04895      20.35713      -4.92427
                        -----------------------------------------
Total Dipole Moment    :      4.09364     -18.75076       6.88966
                        -----------------------------------------
Magnitude (a.u.)       :     20.39157
Magnitude (Debye)      :     51.83125


Timings for individual modules:

Sum of individual times         ...        0.298 sec (=   0.005 min)
STO integral calculation        ...        0.058 sec (=   0.001 min)  19.4 %
SCF iterations                  ...        0.240 sec (=   0.004 min)  80.6 %
                             ****ORCA TERMINATED NORMALLY****
TOTAL RUN TIME: 0 days 0 hours 0 minutes 0 seconds 600 msec

