
                                 *****************
                                 * O   R   C   A *
                                 *****************

           --- An Ab Initio, DFT and Semiempirical electronic structure package ---

                  #######################################################
                  #                        -***-                        #
                  #  Department of molecular theory and spectroscopy    #
                  #              Directorship: Frank Neese              #
                  # Max Planck Institute for Chemical Energy Conversion #
                  #                  D-45470 Muelheim/Ruhr              #
                  #                       Germany                       #
                  #                                                     #
                  #                  All rights reserved                #
                  #                        -***-                        #
                  #######################################################


                         Program Version 3.0.3 - RELEASE   -


 With contributions from (in alphabetic order):
   Ute Becker             : Parallelization
   Dmytro Bykov           : SCF Hessian
   Dmitry Ganyushin       : Spin-Orbit,Spin-Spin,Magnetic field MRCI
   Andreas Hansen         : Spin unrestricted coupled pair/coupled cluster methods
   Dimitrios Liakos       : Extrapolation schemes; parallel MDCI
   Robert Izsak           : Overlap fitted RIJCOSX, COSX-SCS-MP3
   Christian Kollmar      : KDIIS, OOCD, Brueckner-CCSD(T), CCSD density
   Simone Kossmann        : Meta GGA functionals, TD-DFT gradient, OOMP2, MP2 Hessian
   Taras Petrenko         : DFT Hessian,TD-DFT gradient, ASA and ECA modules, normal mode analysis, Resonance Raman, ABS, FL, XAS/XES, NRVS
   Christoph Reimann      : Effective Core Potentials
   Michael Roemelt        : Restricted open shell CIS
   Christoph Riplinger    : Improved optimizer, TS searches, QM/MM, DLPNO-CCSD
   Barbara Sandhoefer     : DKH picture change effects
   Igor Schapiro          : Molecular dynamics
   Kantharuban Sivalingam : CASSCF convergence, NEVPT2
   Boris Wezisla          : Elementary symmetry handling
   Frank Wennmohs         : Technical directorship


 We gratefully acknowledge several colleagues who have allowed us to
 interface, adapt or use parts of their codes:
   Stefan Grimme, W. Hujo, H. Kruse, T. Risthaus : VdW corrections, initial TS optimization,
                                                   DFT functionals, gCP
   Ed Valeev                                     : LibInt (2-el integral package), F12 methods
   Garnet Chan, S. Sharma, R. Olivares           : DMRG
   Ulf Ekstrom                                   : XCFun DFT Library
   Mihaly Kallay                                 : mrcc  (arbitrary order and MRCC methods)
   Andreas Klamt, Michael Diedenhofen            : otool_cosmo (COSMO solvation model)
   Frank Weinhold                                : gennbo (NPA and NBO analysis)
   Christopher J. Cramer and Donald G. Truhlar   : smd solvation model


 Your calculation uses the libint2 library for the computation of 2-el integrals
 For citations please refer to: http://libint.valeyev.net

 This ORCA versions uses:
   CBLAS   interface :  Fast vector & matrix operations
   LAPACKE interface :  Fast linear algebra routines
   SCALAPACK package :  Parallel linear algebra routines


leaving
================================================================================
                                        WARNINGS
                       Please study these warnings very carefully!
================================================================================
Now building the actual basis set

WARNING: Direct SCF is incompatible with Method<>HF and Method<>DFT
  ===> : conventional SCF is chosen

WARNING: The NDO methods need Guess=HUECKEL or Guess=HCORE or Guess=MOREAD
  ===> : Guess is set to Hueckel

WARNING: The NDO methods need %rel::SOCType==1
  ===> : %rel::SOCType is set to 1

WARNING: The NDO methods cannot have frozencore=1
  ===> : %method FrozenCore=0 end


INFO   : the flag for use of LIBINT has been found!

================================================================================
                                       INPUT FILE
================================================================================
NAME = /Users/mattyjones/GoogleDrive/Boise/Code/MorphCT/tests/output_EZ/donor_polymer/chromophores/input_orca/pair/00010-00022.inp
|  1> # ================================================================
|  2> # Orca input file made by Matty Jones
|  3> # ================================================================
|  4> ! ZINDO/S 
|  5> ! NOPOP
|  6> ! NOMOPRINT
|  7> * xyz 0   1
|  8>  C  24.78369  -3.46560  2.33296
|  9>  C  24.17613  -4.63307  2.79750
| 10>  C  24.74606  -5.14776  4.00354
| 11>  C  25.80902  -4.38286  4.49380
| 12>  S  25.98527  -3.12764  3.42432
| 13>  H  23.30648  -5.15079  2.27162
| 14>  C  24.16598  -6.49542  4.67986
| 15>  C  22.50060  -6.67071  5.03363
| 16>  C  21.19456  -7.27489  4.12390
| 17>  H  20.67568  -8.03990  4.83175
| 18>  H  20.47463  -6.37039  4.00142
| 19>  H  22.49723  -7.32881  5.99007
| 20>  H  22.17141  -5.60020  5.33035
| 21>  H  24.67086  -6.72343  5.69357
| 22>  H  24.40420  -7.38486  3.96672
| 23>  C  21.31297  -7.99384  2.66910
| 24>  C  19.77532  -8.38656  2.05625
| 25>  C  19.16352  -9.89285  2.49319
| 26>  H  18.01953  -9.90430  2.31298
| 27>  H  19.38131  -10.09031  3.61174
| 28>  H  19.66438  -10.71096  1.84660
| 29>  H  19.83670  -8.34692  0.90612
| 30>  H  19.03192  -7.58684  2.42655
| 31>  H  21.82477  -7.28449  1.91650
| 32>  H  21.92545  -8.96865  2.75062
| 33>  C  -24.85914  3.54866  -5.11810
| 34>  C  -24.01350  4.52902  -4.59685
| 35>  C  -24.66737  5.46889  -3.74051
| 36>  C  -26.03621  5.22951  -3.58477
| 37>  S  -26.36091  3.88645  -4.50191
| 38>  H  -22.89249  4.57677  -4.81095
| 39>  C  -23.87163  6.67520  -3.03842
| 40>  C  -22.80802  7.54648  -4.02153
| 41>  C  -22.12619  8.85297  -3.19363
| 42>  H  -22.98648  9.36819  -2.61247
| 43>  H  -21.74613  9.59163  -4.00217
| 44>  H  -21.96355  6.84617  -4.36677
| 45>  H  -23.38876  7.94489  -4.93067
| 46>  H  -24.56064  7.49122  -2.61297
| 47>  H  -23.23868  6.24699  -2.15343
| 48>  C  -20.91349  8.53742  -2.15837
| 49>  C  -19.36631  8.42548  -2.81920
| 50>  C  -18.91279  6.84393  -3.17218
| 51>  H  -17.87214  6.63782  -2.70798
| 52>  H  -18.86029  6.70584  -4.31971
| 53>  H  -19.68391  6.10340  -2.72932
| 54>  H  -19.33721  9.03933  -3.79405
| 55>  H  -18.61494  8.86490  -2.06453
| 56>  H  -21.13489  7.54637  -1.60294
| 57>  H  -20.87521  9.38842  -1.37014
| 58>  H  24.53035  -2.91178  1.46538
| 59>  H  26.38214  -4.56679  5.36632
| 60>  H  -24.59665  2.75542  -5.77037
| 61>  H  -26.72262  5.78928  -3.00245
| 62> *
| 63> 
| 64>                          ****END OF INPUT****
================================================================================

                       ****************************
                       * Single Point Calculation *
                       ****************************

---------------------------------
CARTESIAN COORDINATES (ANGSTROEM)
---------------------------------
  C     24.783690   -3.465600    2.332960
  C     24.176130   -4.633070    2.797500
  C     24.746060   -5.147760    4.003540
  C     25.809020   -4.382860    4.493800
  S     25.985270   -3.127640    3.424320
  H     23.306480   -5.150790    2.271620
  C     24.165980   -6.495420    4.679860
  C     22.500600   -6.670710    5.033630
  C     21.194560   -7.274890    4.123900
  H     20.675680   -8.039900    4.831750
  H     20.474630   -6.370390    4.001420
  H     22.497230   -7.328810    5.990070
  H     22.171410   -5.600200    5.330350
  H     24.670860   -6.723430    5.693570
  H     24.404200   -7.384860    3.966720
  C     21.312970   -7.993840    2.669100
  C     19.775320   -8.386560    2.056250
  C     19.163520   -9.892850    2.493190
  H     18.019530   -9.904300    2.312980
  H     19.381310  -10.090310    3.611740
  H     19.664380  -10.710960    1.846600
  H     19.836700   -8.346920    0.906120
  H     19.031920   -7.586840    2.426550
  H     21.824770   -7.284490    1.916500
  H     21.925450   -8.968650    2.750620
  C    -24.859140    3.548660   -5.118100
  C    -24.013500    4.529020   -4.596850
  C    -24.667370    5.468890   -3.740510
  C    -26.036210    5.229510   -3.584770
  S    -26.360910    3.886450   -4.501910
  H    -22.892490    4.576770   -4.810950
  C    -23.871630    6.675200   -3.038420
  C    -22.808020    7.546480   -4.021530
  C    -22.126190    8.852970   -3.193630
  H    -22.986480    9.368190   -2.612470
  H    -21.746130    9.591630   -4.002170
  H    -21.963550    6.846170   -4.366770
  H    -23.388760    7.944890   -4.930670
  H    -24.560640    7.491220   -2.612970
  H    -23.238680    6.246990   -2.153430
  C    -20.913490    8.537420   -2.158370
  C    -19.366310    8.425480   -2.819200
  C    -18.912790    6.843930   -3.172180
  H    -17.872140    6.637820   -2.707980
  H    -18.860290    6.705840   -4.319710
  H    -19.683910    6.103400   -2.729320
  H    -19.337210    9.039330   -3.794050
  H    -18.614940    8.864900   -2.064530
  H    -21.134890    7.546370   -1.602940
  H    -20.875210    9.388420   -1.370140
  H     24.530350   -2.911780    1.465380
  H     26.382140   -4.566790    5.366320
  H    -24.596650    2.755420   -5.770370
  H    -26.722620    5.789280   -3.002450

----------------------------
CARTESIAN COORDINATES (A.U.)
----------------------------
  NO LB      ZA    FRAG    MASS        X           Y           Z
   0 C     4.0000    0    12.011         46.834386688002787         -6.549034889717490          4.408655481392923
   1 C     4.0000    0    12.011         45.686264678077592         -8.755233459286533          5.286508859644702
   2 C     4.0000    0    12.011         46.763276293583331         -9.727856603154462          7.565594166199088
   3 C     4.0000    0    12.011         48.771979584896265         -8.282405083318096          8.492051300615321
   4 S     6.0000    0    32.060         49.105043815999885         -5.910383045497463          6.471026994909220
   5 H     1.0000    0     1.008         44.042864345712971         -9.733582473340244          4.292739680338194
   6 C     4.0000    0    12.011         45.667083957818292        -12.274564924794777          8.843653745092709
   7 C     4.0000    0    12.011         42.519971848908511        -12.605815018809832          9.512182159490029
   8 C     4.0000    0    12.011         40.051913928962001        -13.747549754402375          7.793041603677850
   9 H     1.0000    0     1.008         39.071372832592942        -15.193209144113471          9.130684247574008
  10 H     1.0000    0     1.008         38.691443393368083        -12.038292466270603          7.561587946795176
  11 H     1.0000    0     1.008         42.513603471837200        -13.849443787543407         11.319591823017673
  12 H     1.0000    0     1.008         41.897892902882980        -10.582844295185794         10.072901697947144
  13 H     1.0000    0     1.008         46.621168888312454        -12.705441380590161         10.759288024310020
  14 H     1.0000    0     1.008         46.117254517441012        -13.955362937349694          7.496014449948108
  15 C     4.0000    0    12.011         40.275676400479618        -15.106168358385057          5.043868024049212
  16 C     4.0000    0    12.011         37.369939010655607        -15.848301605698611          3.885749362875574
  17 C     4.0000    0    12.011         36.213804561922579        -18.694777183962852          4.711446299831125
  18 H     1.0000    0     1.008         34.051976761978011        -18.716414548196251          4.370898753237177
  19 H     1.0000    0     1.008         36.625368016629295        -19.067922506366944          6.825199466928741
  20 H     1.0000    0     1.008         37.160292793358387        -20.240781031385168          3.489568278898983
  21 H     1.0000    0     1.008         37.485930400755691        -15.773392861749976          1.712318644468725
  22 H     1.0000    0     1.008         35.965116602698544        -14.337049821879107          4.585514950266614
  23 H     1.0000    0     1.008         41.242838235820514        -13.765691125288019          3.621660135660079
  24 H     1.0000    0     1.008         41.433095862983713        -16.948292290992836          5.197918498486473
  25 C     4.0000    0    12.011        -46.976966524807146          6.705995542400989         -9.671807326022359
  26 C     4.0000    0    12.011        -45.378938516917977          8.558607455052027         -8.686787578715906
  27 C     4.0000    0    12.011        -46.614573744105066         10.334704356540595         -7.068539501193781
  28 C     4.0000    0    12.011        -49.201306465261830          9.882341714602525         -6.774233553096885
  29 S     6.0000    0    32.060        -49.814900540946063          7.344326133178249         -8.507376979561421
  30 H     1.0000    0     1.008        -43.260536623530911          8.648841877946767         -9.091377943988446
  31 C     4.0000    0    12.011        -45.110843070298571         12.614299889151139         -5.741781679829010
  32 C     4.0000    0    12.011        -43.100911456998581         14.260780475114046         -7.599590339348332
  33 C     4.0000    0    12.011        -41.812439487107063         16.729688771820822         -6.035086073074927
  34 H     1.0000    0     1.008        -43.438151982858173         17.703313470539729         -4.936852833085252
  35 H     1.0000    0     1.008        -41.094230172648949         18.125553877903094         -7.563005241395615
  36 H     1.0000    0     1.008        -41.505094428686107         12.937386366267654         -8.251999389823304
  37 H     1.0000    0     1.008        -44.198351012012019         15.013666264129613         -9.317615956741498
  38 H     1.0000    0     1.008        -46.412883273831646         14.156354208953559         -4.937797696152213
  39 H     1.0000    0     1.008        -43.914740913833107         11.805100261344720         -4.069392948570041
  40 C     4.0000    0    12.011        -39.520768604500759         16.133385690261971         -4.078728195671612
  41 C     4.0000    0    12.011        -36.597022124620473         15.921849746830828         -5.327515916750793
  42 C     4.0000    0    12.011        -35.739993528364508         12.933153379727672         -5.994551447502316
  43 H     1.0000    0     1.008        -33.773450027099365         12.543661926265163         -5.117340576136071
  44 H     1.0000    0     1.008        -35.640782906333641         12.672201097894487         -8.163068877960969
  45 H     1.0000    0     1.008        -37.197199144753867         11.533754485774967         -5.157667331833951
  46 H     1.0000    0     1.008        -36.542031094123367         17.081858134138386         -7.169715438403925
  47 H     1.0000    0     1.008        -35.177138599376065         16.752233204598504         -3.901396295264441
  48 H     1.0000    0     1.008        -39.939153970550919         14.260572605239314         -3.029117609107731
  49 H     1.0000    0     1.008        -39.448429888094253         17.741542630228956         -2.589189365130864
  50 H     1.0000    0     1.008         46.355643469235176         -5.502466762229222          2.769166882125524
  51 H     1.0000    0     1.008         49.855019426769211         -8.629982411130234         10.140875146984291
  52 H     1.0000    0     1.008        -46.480932311914152          5.206989183929295        -10.904418991395172
  53 H     1.0000    0     1.008        -50.498433380846720         10.940153712587623         -5.673808230791862

--------------------------------
INTERNAL COORDINATES (ANGSTROEM)
--------------------------------
 C      0   0   0   0.000000     0.000     0.000
 C      1   0   0   1.395676     0.000     0.000
 C      2   1   0   1.429776   114.101     0.000
 C      3   2   1   1.398324   113.693     0.000
 S      1   2   3   1.658034   105.479     0.000
 H      2   1   3   1.140559   123.928   180.473
 C      3   2   1   1.615577   120.682   180.107
 C      7   3   2   1.711540   121.422   307.098
 C      8   7   3   1.702464   132.249    89.752
 H      9   8   7   1.164272   104.489   129.762
 H      9   8   7   1.162506   104.789   242.588
 H      8   7   3   1.160984   103.365   212.752
 H      8   7   3   1.158620   103.578   325.534
 H      7   3   2   1.155206   112.029   185.097
 H      7   3   2   1.164655   107.895    67.222
 C      9   8   7   1.627069   125.364     6.719
 C     16   9   8   1.701229   110.997   182.822
 C     17  16   9   1.683486   116.201   271.461
 H     18  17  16   1.158154   109.113   162.058
 H     18  17  16   1.156537   109.594    42.093
 H     18  17  16   1.156825   109.290   281.759
 H     17  16   9   1.152449   107.664   150.242
 H     17  16   9   1.152960   107.876    32.356
 H     16   9   8   1.153917   110.109   302.272
 H     16   9   8   1.154137   110.406    63.007
 C     19  18  17  45.549791   162.234   343.415
 C     26  19  18   1.395677    64.923   340.134
 C     27  26  19   1.429762   114.101   212.148
 C     28  27  26   1.398314   113.695     0.000
 S     26  19  18   1.658043   148.449   261.610
 H     27  26  19   1.142271   123.641    31.035
 C     28  27  26   1.606648   121.924   179.964
 C     32  28  27   1.690237   116.393    45.557
 C     33  32  28   1.690333   111.554   175.745
 H     34  33  32   1.159007   106.844   315.604
 H     34  33  32   1.159224   106.447   200.331
 H     33  32  28   1.150111   108.830   295.738
 H     33  32  28   1.150011   108.701    55.713
 H     32  28  27   1.149622   113.443   164.949
 H     32  28  27   1.169272   108.898   284.883
 C     34  33  32   1.625416   117.571    78.024
 C     41  34  33   1.686118   116.607    84.175
 C     42  41  34   1.682729   113.074   264.810
 H     43  42  41   1.157979   108.990   230.632
 H     43  42  41   1.157001   109.418   110.791
 H     43  42  41   1.157210   109.973   350.508
 H     42  41  34   1.152385   108.624    25.239
 H     42  41  34   1.152030   108.446   144.219
 H     41  34  33   1.157454   109.217   321.632
 H     41  34  33   1.160592   108.351   204.275
 H      1   2   3   1.059997   127.259   180.000
 H      4   3   2   1.059994   127.206   180.000
 H     26  19  18   1.059994    69.284   133.213
 H     29  28  27   1.059999   127.207   180.001

---------------------------
INTERNAL COORDINATES (A.U.)
---------------------------
 C      0   0   0   0.000000     0.000     0.000
 C      1   0   0   2.637446     0.000     0.000
 C      2   1   0   2.701884   114.101     0.000
 C      3   2   1   2.642450   113.693     0.000
 S      1   2   3   3.133231   105.479     0.000
 H      2   1   3   2.155344   123.928   180.473
 C      3   2   1   3.052998   120.682   180.107
 C      7   3   2   3.234343   121.422   307.098
 C      8   7   3   3.217190   132.249    89.752
 H      9   8   7   2.200154   104.489   129.762
 H      9   8   7   2.196818   104.789   242.588
 H      8   7   3   2.193942   103.365   212.752
 H      8   7   3   2.189475   103.578   325.534
 H      7   3   2   2.183023   112.029   185.097
 H      7   3   2   2.200879   107.895    67.222
 C      9   8   7   3.074715   125.364     6.719
 C     16   9   8   3.214858   110.997   182.822
 C     17  16   9   3.181328   116.201   271.461
 H     18  17  16   2.188593   109.113   162.058
 H     18  17  16   2.185538   109.594    42.093
 H     18  17  16   2.186082   109.290   281.759
 H     17  16   9   2.177812   107.664   150.242
 H     17  16   9   2.178779   107.876    32.356
 H     16   9   8   2.180586   110.109   302.272
 H     16   9   8   2.181003   110.406    63.007
 C     19  18  17  86.076630   162.234   343.415
 C     26  19  18   2.637447    64.923   340.134
 C     27  26  19   2.701859   114.101   212.148
 C     28  27  26   2.642430   113.695     0.000
 S     26  19  18   3.133246   148.449   261.610
 H     27  26  19   2.158579   123.641    31.035
 C     28  27  26   3.036124   121.924   179.964
 C     32  28  27   3.194085   116.393    45.557
 C     33  32  28   3.194267   111.554   175.745
 H     34  33  32   2.190206   106.844   315.604
 H     34  33  32   2.190617   106.447   200.331
 H     33  32  28   2.173394   108.830   295.738
 H     33  32  28   2.173206   108.701    55.713
 H     32  28  27   2.172471   113.443   164.949
 H     32  28  27   2.209604   108.898   284.883
 C     34  33  32   3.071591   117.571    78.024
 C     41  34  33   3.186301   116.607    84.175
 C     42  41  34   3.179896   113.074   264.810
 H     43  42  41   2.188263   108.990   230.632
 H     43  42  41   2.186414   109.418   110.791
 H     43  42  41   2.186811   109.973   350.508
 H     42  41  34   2.177692   108.624    25.239
 H     42  41  34   2.177022   108.446   144.219
 H     41  34  33   2.187272   109.217   321.632
 H     41  34  33   2.193200   108.351   204.275
 H      1   2   3   2.003103   127.259   180.000
 H      4   3   2   2.003099   127.206   180.000
 H     26  19  18   2.003098    69.284   133.213
 H     29  28  27   2.003108   127.207   180.001

----------------------------
SLATER BASIS SET DIM= 120
----------------------------
  0 C     2 shells
 l=0 nsto= 1
    2       1.625000000000        1.000000000000
 l=1 nsto= 1
    2       1.625000000000        1.000000000000
  1 C     2 shells
 l=0 nsto= 1
    2       1.625000000000        1.000000000000
 l=1 nsto= 1
    2       1.625000000000        1.000000000000
  2 C     2 shells
 l=0 nsto= 1
    2       1.625000000000        1.000000000000
 l=1 nsto= 1
    2       1.625000000000        1.000000000000
  3 C     2 shells
 l=0 nsto= 1
    2       1.625000000000        1.000000000000
 l=1 nsto= 1
    2       1.625000000000        1.000000000000
  4 S     2 shells
 l=0 nsto= 1
    3       1.925000000000        1.000000000000
 l=1 nsto= 1
    3       1.925000000000        1.000000000000
  5 H     1 shells
 l=0 nsto= 1
    1       1.200000000000        1.000000000000
  6 C     2 shells
 l=0 nsto= 1
    2       1.625000000000        1.000000000000
 l=1 nsto= 1
    2       1.625000000000        1.000000000000
  7 C     2 shells
 l=0 nsto= 1
    2       1.625000000000        1.000000000000
 l=1 nsto= 1
    2       1.625000000000        1.000000000000
  8 C     2 shells
 l=0 nsto= 1
    2       1.625000000000        1.000000000000
 l=1 nsto= 1
    2       1.625000000000        1.000000000000
  9 H     1 shells
 l=0 nsto= 1
    1       1.200000000000        1.000000000000
 10 H     1 shells
 l=0 nsto= 1
    1       1.200000000000        1.000000000000
 11 H     1 shells
 l=0 nsto= 1
    1       1.200000000000        1.000000000000
 12 H     1 shells
 l=0 nsto= 1
    1       1.200000000000        1.000000000000
 13 H     1 shells
 l=0 nsto= 1
    1       1.200000000000        1.000000000000
 14 H     1 shells
 l=0 nsto= 1
    1       1.200000000000        1.000000000000
 15 C     2 shells
 l=0 nsto= 1
    2       1.625000000000        1.000000000000
 l=1 nsto= 1
    2       1.625000000000        1.000000000000
 16 C     2 shells
 l=0 nsto= 1
    2       1.625000000000        1.000000000000
 l=1 nsto= 1
    2       1.625000000000        1.000000000000
 17 C     2 shells
 l=0 nsto= 1
    2       1.625000000000        1.000000000000
 l=1 nsto= 1
    2       1.625000000000        1.000000000000
 18 H     1 shells
 l=0 nsto= 1
    1       1.200000000000        1.000000000000
 19 H     1 shells
 l=0 nsto= 1
    1       1.200000000000        1.000000000000
 20 H     1 shells
 l=0 nsto= 1
    1       1.200000000000        1.000000000000
 21 H     1 shells
 l=0 nsto= 1
    1       1.200000000000        1.000000000000
 22 H     1 shells
 l=0 nsto= 1
    1       1.200000000000        1.000000000000
 23 H     1 shells
 l=0 nsto= 1
    1       1.200000000000        1.000000000000
 24 H     1 shells
 l=0 nsto= 1
    1       1.200000000000        1.000000000000
 25 C     2 shells
 l=0 nsto= 1
    2       1.625000000000        1.000000000000
 l=1 nsto= 1
    2       1.625000000000        1.000000000000
 26 C     2 shells
 l=0 nsto= 1
    2       1.625000000000        1.000000000000
 l=1 nsto= 1
    2       1.625000000000        1.000000000000
 27 C     2 shells
 l=0 nsto= 1
    2       1.625000000000        1.000000000000
 l=1 nsto= 1
    2       1.625000000000        1.000000000000
 28 C     2 shells
 l=0 nsto= 1
    2       1.625000000000        1.000000000000
 l=1 nsto= 1
    2       1.625000000000        1.000000000000
 29 S     2 shells
 l=0 nsto= 1
    3       1.925000000000        1.000000000000
 l=1 nsto= 1
    3       1.925000000000        1.000000000000
 30 H     1 shells
 l=0 nsto= 1
    1       1.200000000000        1.000000000000
 31 C     2 shells
 l=0 nsto= 1
    2       1.625000000000        1.000000000000
 l=1 nsto= 1
    2       1.625000000000        1.000000000000
 32 C     2 shells
 l=0 nsto= 1
    2       1.625000000000        1.000000000000
 l=1 nsto= 1
    2       1.625000000000        1.000000000000
 33 C     2 shells
 l=0 nsto= 1
    2       1.625000000000        1.000000000000
 l=1 nsto= 1
    2       1.625000000000        1.000000000000
 34 H     1 shells
 l=0 nsto= 1
    1       1.200000000000        1.000000000000
 35 H     1 shells
 l=0 nsto= 1
    1       1.200000000000        1.000000000000
 36 H     1 shells
 l=0 nsto= 1
    1       1.200000000000        1.000000000000
 37 H     1 shells
 l=0 nsto= 1
    1       1.200000000000        1.000000000000
 38 H     1 shells
 l=0 nsto= 1
    1       1.200000000000        1.000000000000
 39 H     1 shells
 l=0 nsto= 1
    1       1.200000000000        1.000000000000
 40 C     2 shells
 l=0 nsto= 1
    2       1.625000000000        1.000000000000
 l=1 nsto= 1
    2       1.625000000000        1.000000000000
 41 C     2 shells
 l=0 nsto= 1
    2       1.625000000000        1.000000000000
 l=1 nsto= 1
    2       1.625000000000        1.000000000000
 42 C     2 shells
 l=0 nsto= 1
    2       1.625000000000        1.000000000000
 l=1 nsto= 1
    2       1.625000000000        1.000000000000
 43 H     1 shells
 l=0 nsto= 1
    1       1.200000000000        1.000000000000
 44 H     1 shells
 l=0 nsto= 1
    1       1.200000000000        1.000000000000
 45 H     1 shells
 l=0 nsto= 1
    1       1.200000000000        1.000000000000
 46 H     1 shells
 l=0 nsto= 1
    1       1.200000000000        1.000000000000
 47 H     1 shells
 l=0 nsto= 1
    1       1.200000000000        1.000000000000
 48 H     1 shells
 l=0 nsto= 1
    1       1.200000000000        1.000000000000
 49 H     1 shells
 l=0 nsto= 1
    1       1.200000000000        1.000000000000
 50 H     1 shells
 l=0 nsto= 1
    1       1.200000000000        1.000000000000
 51 H     1 shells
 l=0 nsto= 1
    1       1.200000000000        1.000000000000
 52 H     1 shells
 l=0 nsto= 1
    1       1.200000000000        1.000000000000
 53 H     1 shells
 l=0 nsto= 1
    1       1.200000000000        1.000000000000
------------------------------------------------------------------------------
                           ORCA NDO INTEGRAL CALCULATION
------------------------------------------------------------------------------

--------------
NDO PARAMETERS
--------------

Gamma integral treatment              ... Mataga-Nishimoto
Nuclear repulsuion treatment          ... Direct (ZA*ZB/RAB)
Interaction factors:
s-s (sigma) =    1.0000
s-p (sigma) =    1.0000
s-d (sigma) =    1.0000
p-p (sigma) =    1.2670  p-p(pi) =    0.5850
p-d (sigma) =    1.0000  p-d(pi) =    1.0000
d-d (sigma) =    1.0000  d-d(pi) =    1.0000 d-d (delta) =    1.0000

fGamma parameter for Mataga-Nishimoto gamma integrals:    1.2000

--------------------------
Parameters for Element H :
--------------------------
 One-electron parameters (in eV)
  U(s)  =   -13.060000 Beta(s) =    12.000000 Neff(s) =     1.000000
 One-center electron repulsion parameters (in eV)
  G(s,s)=    12.850000
--------------------------
Parameters for Element C :
--------------------------
 One-electron parameters (in eV)
  U(s)  =   -50.870766 Beta(s) =    17.000000 Neff(s) =     2.000000
  U(p)  =   -41.599980 Beta(p) =    17.000000 Neff(p) =     2.000000 
 One-center electron repulsion parameters (in eV)
  G(s,s)=    11.110000
  G(s,p)=    11.110000 G(p,p)  =    11.110000
 Slater-Condon parameters (in eV)
 F2(p,p)=     4.5098 G1(s,p)=    6.8977
--------------------------
Parameters for Element S :
--------------------------
 One-electron parameters (in eV)
  U(s)  =   -69.509597 Beta(s) =    15.000000 Neff(s) =     2.000000
  U(p)  =   -60.725746 Beta(p) =    15.000000 Neff(p) =     4.000000 
 One-center electron repulsion parameters (in eV)
  G(s,s)=    10.090000
  G(s,p)=    10.090000 G(p,p)  =    10.090000
 Slater-Condon parameters (in eV)
 F2(p,p)=     4.5377 G1(s,p)=    3.0756

 Number of atoms                    ....   54
 Number of basis functions          ....  120

 Overlap integrals                  .... done
 One electron matrix                .... done
 Nuclear repulsion                  .... done
 Integral list                      .... done
 Electron-electron repulsion        .... done
-------------------------------------------------------------------------------
                                 ORCA SCF
-------------------------------------------------------------------------------

------------
SCF SETTINGS
------------
Hamiltonian:
 ZDO-Hamiltonian        Method          .... INDO


General Settings:
 Integral files         IntName         .... /Users/mattyjones/GoogleDrive/Boise/Code/MorphCT/tests/output_EZ/donor_polymer/chromophores/input_orca/pair/00010-00022
 Hartree-Fock type      HFTyp           .... RHF
 Total Charge           Charge          ....    0
 Multiplicity           Mult            ....    1
 Number of Electrons    NEL             ....  124
 Basis Dimension        Dim             ....  120
 Nuclear Repulsion      ENuc            ....    635.1647388385 Eh

Convergence Acceleration:
 DIIS                   CNVDIIS         .... on
   Start iteration      DIISMaxIt       ....    12
   Startup error        DIISStart       ....  0.200000
   # of expansion vecs  DIISMaxEq       ....     5
   Bias factor          DIISBfac        ....   1.050
   Max. coefficient     DIISMaxC        ....  10.000
 Newton-Raphson         CNVNR           .... off
 SOSCF                  CNVSOSCF        .... on
   Start iteration      SOSCFMaxIt      ....   150
   Startup grad/error   SOSCFStart      ....  0.003300
 Level Shifting         CNVShift        .... on
   Level shift para.    LevelShift      ....    0.2500
   Turn off err/grad.   ShiftErr        ....    0.0010
 Zerner damping         CNVZerner       .... off
 Static damping         CNVDamp         .... on
   Fraction old density DampFac         ....    0.7000
   Max. Damping (<1)    DampMax         ....    0.9800
   Min. Damping (>=0)   DampMin         ....    0.0000
   Turn off err/grad.   DampErr         ....    0.1000
 Fernandez-Rico         CNVRico         .... off

SCF Procedure:
 Maximum # iterations   MaxIter         ....   125
 SCF integral mode      SCFMode         .... Conventional
 Integral Buffer length BufferLength    .... 1048576
 Integral index format  IndFormat       ....     0
 Integral value format  ValFormat       ....     0
 Integral Storage       Thresh          ....  1.000e-08 Eh

Convergence Tolerance:
 Convergence Check Mode ConvCheckMode   .... Total+1el-Energy
 Energy Change          TolE            ....  1.000e-06 Eh
 1-El. energy change                    ....  1.000e-03 Eh
 Orbital Gradient       TolG            ....  5.000e-05
 Orbital Rotation angle TolX            ....  5.000e-05
 DIIS Error             TolErr          ....  1.000e-06


Diagonalization of the overlap matrix:
Smallest eigenvalue                        ... 1.698e-01
Time for diagonalization                   ...    0.003 sec
Threshold for overlap eigenvalues          ... 1.000e-08
Number of eigenvalues below threshold      ... 0
Time for construction of square roots      ...    0.001 sec
Total time needed                          ...    0.004 sec

-------------------------------
INITIAL GUESS: EXTENDED HUECKEL
-------------------------------
EHT matrix was read from disk
EHT matrix was diagonalized
Initial density was built
                      ------------------
                      INITIAL GUESS DONE
                      ------------------

 InCore treatment chosen:
   Memory dedicated               ...    1024 MB
   Memory needed                  ...      0 MB
   Number of tiny    integrals    ...       0
   Number of small   integrals    ...       0
   Number of regular integrals    ...    7392

--------------
SCF ITERATIONS
--------------
ITER       Energy         Delta-E        Max-DP      RMS-DP      [F,P]     Damp
  0    -19.5228232933   0.000000000000 0.04126809  0.00143765  0.0971492 0.7000
  1    -19.5642996432  -0.041476349904 0.03883597  0.00135351  0.0666215 0.7000
                               ***Turning on DIIS***
  2    -19.5950044989  -0.030704855677 0.09813317  0.00347312  0.0438826 0.0000
  3    -19.6746542743  -0.079649775399 0.01687484  0.00071319  0.0191290 0.0000
  4    -19.6610379946   0.013616279687 0.01066335  0.00048925  0.0064607 0.0000
  5    -19.6774591581  -0.016421163446 0.00743103  0.00033071  0.0037141 0.0000
  6    -19.6804247539  -0.002965595787 0.00560546  0.00023511  0.0020424 0.0000
                      *** Initiating the SOSCF procedure ***
                           *** Shutting down DIIS ***
                      *** Re-Reading the Fockian *** 
                      *** Removing any level shift *** 
ITER      Energy       Delta-E        Grad      Rot      Max-DP    RMS-DP
  7    -19.67598480   0.0044399543  0.002997  0.002997  0.003331  0.000132
  8    -19.67381901   0.0021657920  0.000799  0.002195  0.001664  0.000061
  9    -19.67383338  -0.0000143677  0.000353  0.002139  0.001859  0.000065
 10    -19.67383862  -0.0000052412  0.000027  0.000057  0.000103  0.000004
                 **** Energy Check signals convergence ****
              ***Rediagonalizing the Fockian in SOSCF/NRSCF***

               *****************************************************
               *                     SUCCESS                       *
               *           SCF CONVERGED AFTER  11 CYCLES          *
               *****************************************************


----------------
TOTAL SCF ENERGY
----------------

Total Energy       :          -19.67383866 Eh            -535.35237 eV

Components:
Nuclear Repulsion  :          635.16473884 Eh           17283.71123 eV
Electronic Energy  :         -654.83857750 Eh          -17819.06360 eV

One Electron Energy:        -1219.21784636 Eh          -33176.60427 eV
Two Electron Energy:          564.37926887 Eh           15357.54067 eV


---------------
SCF CONVERGENCE
---------------

  Last Energy change         ...   -4.3755e-08  Tolerance :   1.0000e-06
  Last MAX-Density change    ...    3.4378e-05  Tolerance :   1.0000e-05
  Last RMS-Density change    ...    1.1847e-06  Tolerance :   1.0000e-06
  Last Orbital Gradient      ...    7.0210e-06  Tolerance :   5.0000e-05
  Last Orbital Rotation      ...    1.9824e-05  Tolerance :   5.0000e-05

             **** THE GBW FILE WAS UPDATED (/Users/mattyjones/GoogleDrive/Boise/Code/MorphCT/tests/output_EZ/donor_polymer/chromophores/input_orca/pair/00010-00022.gbw) ****
             **** DENSITY FILE WAS UPDATED (/Users/mattyjones/GoogleDrive/Boise/Code/MorphCT/tests/output_EZ/donor_polymer/chromophores/input_orca/pair/00010-00022.scfp.tmp) ****
             **** ENERGY FILE WAS UPDATED (/Users/mattyjones/GoogleDrive/Boise/Code/MorphCT/tests/output_EZ/donor_polymer/chromophores/input_orca/pair/00010-00022.en.tmp) ****
----------------
ORBITAL ENERGIES
----------------

  NO   OCC          E(Eh)            E(eV) 
   0   2.0000      -1.558101       -42.3981 
   1   2.0000      -1.556318       -42.3496 
   2   2.0000      -1.411947       -38.4210 
   3   2.0000      -1.393234       -37.9118 
   4   2.0000      -1.292218       -35.1630 
   5   2.0000      -1.289019       -35.0760 
   6   2.0000      -1.179997       -32.1093 
   7   2.0000      -1.176661       -32.0186 
   8   2.0000      -1.116082       -30.3701 
   9   2.0000      -1.111082       -30.2341 
  10   2.0000      -1.057047       -28.7637 
  11   2.0000      -1.039558       -28.2878 
  12   2.0000      -0.968458       -26.3531 
  13   2.0000      -0.949238       -25.8301 
  14   2.0000      -0.914356       -24.8809 
  15   2.0000      -0.897614       -24.4253 
  16   2.0000      -0.858639       -23.3648 
  17   2.0000      -0.853581       -23.2271 
  18   2.0000      -0.832397       -22.6507 
  19   2.0000      -0.829453       -22.5706 
  20   2.0000      -0.772546       -21.0221 
  21   2.0000      -0.768110       -20.9013 
  22   2.0000      -0.737169       -20.0594 
  23   2.0000      -0.736041       -20.0287 
  24   2.0000      -0.709268       -19.3002 
  25   2.0000      -0.690042       -18.7770 
  26   2.0000      -0.678060       -18.4509 
  27   2.0000      -0.658376       -17.9153 
  28   2.0000      -0.646199       -17.5840 
  29   2.0000      -0.639092       -17.3906 
  30   2.0000      -0.624169       -16.9845 
  31   2.0000      -0.607061       -16.5190 
  32   2.0000      -0.597348       -16.2547 
  33   2.0000      -0.581845       -15.8328 
  34   2.0000      -0.580157       -15.7869 
  35   2.0000      -0.575227       -15.6527 
  36   2.0000      -0.574373       -15.6295 
  37   2.0000      -0.570508       -15.5243 
  38   2.0000      -0.552174       -15.0254 
  39   2.0000      -0.545873       -14.8540 
  40   2.0000      -0.541865       -14.7449 
  41   2.0000      -0.528233       -14.3739 
  42   2.0000      -0.519285       -14.1305 
  43   2.0000      -0.514996       -14.0138 
  44   2.0000      -0.506618       -13.7858 
  45   2.0000      -0.503503       -13.7010 
  46   2.0000      -0.497563       -13.5394 
  47   2.0000      -0.495427       -13.4813 
  48   2.0000      -0.492910       -13.4128 
  49   2.0000      -0.488400       -13.2900 
  50   2.0000      -0.476665       -12.9707 
  51   2.0000      -0.475276       -12.9329 
  52   2.0000      -0.472772       -12.8648 
  53   2.0000      -0.464833       -12.6487 
  54   2.0000      -0.464328       -12.6350 
  55   2.0000      -0.459992       -12.5170 
  56   2.0000      -0.437915       -11.9163 
  57   2.0000      -0.437370       -11.9014 
  58   2.0000      -0.356627        -9.7043 
  59   2.0000      -0.356405        -9.6983 
  60   2.0000      -0.305431        -8.3112 
  61   2.0000      -0.304625        -8.2893 
  62   0.0000       0.007528         0.2048 
  63   0.0000       0.008103         0.2205 
  64   0.0000       0.063079         1.7165 
  65   0.0000       0.071889         1.9562 
  66   0.0000       0.075586         2.0568 
  67   0.0000       0.079740         2.1698 
  68   0.0000       0.084187         2.2909 
  69   0.0000       0.087955         2.3934 
  70   0.0000       0.103054         2.8043 
  71   0.0000       0.104477         2.8430 
  72   0.0000       0.106867         2.9080 
  73   0.0000       0.108906         2.9635 
  74   0.0000       0.123265         3.3542 
  75   0.0000       0.123976         3.3735 
  76   0.0000       0.142396         3.8748 
  77   0.0000       0.143383         3.9016 
  78   0.0000       0.156428         4.2566 
  79   0.0000       0.156460         4.2575 
  80   0.0000       0.164907         4.4873 
  81   0.0000       0.165113         4.4930 
  82   0.0000       0.168690         4.5903 
  83   0.0000       0.173361         4.7174 
  84   0.0000       0.205798         5.6001 
  85   0.0000       0.206836         5.6283 
  86   0.0000       0.232153         6.3172 
  87   0.0000       0.232329         6.3220 
  88   0.0000       0.233759         6.3609 
  89   0.0000       0.235610         6.4113 
  90   0.0000       0.235898         6.4191 
  91   0.0000       0.237300         6.4573 
  92   0.0000       0.237393         6.4598 
  93   0.0000       0.239027         6.5043 
  94   0.0000       0.239576         6.5192 
  95   0.0000       0.240987         6.5576 
  96   0.0000       0.241586         6.5739 
  97   0.0000       0.241687         6.5766 
  98   0.0000       0.244221         6.6456 
  99   0.0000       0.245538         6.6814 
 100   0.0000       0.246111         6.6970 
 101   0.0000       0.255141         6.9428 
 102   0.0000       0.259048         7.0490 
 103   0.0000       0.266252         7.2451 
 104   0.0000       0.266401         7.2491 
 105   0.0000       0.267410         7.2766 
 106   0.0000       0.274500         7.4695 
 107   0.0000       0.280468         7.6319 
 108   0.0000       0.302364         8.2277 
 109   0.0000       0.307555         8.3690 
 110   0.0000       0.309817         8.4305 
 111   0.0000       0.310456         8.4479 
 112   0.0000       0.340910         9.2766 
 113   0.0000       0.342824         9.3287 
 114   0.0000       0.351606         9.5677 
 115   0.0000       0.361935         9.8487 
 116   0.0000       0.413839        11.2611 
 117   0.0000       0.414708        11.2848 
 118   0.0000       0.428963        11.6727 
 119   0.0000       0.430055        11.7024 
-------
TIMINGS
-------

Total SCF time: 0 days 0 hours 0 min 0 sec 

Total time                  ....       0.131 sec
Sum of individual times     ....       0.106 sec  ( 80.5%)

Fock matrix formation       ....       0.048 sec  ( 36.9%)
Diagonalization             ....       0.024 sec  ( 18.0%)
Density matrix formation    ....       0.005 sec  (  3.9%)
Population analysis         ....       0.000 sec  (  0.0%)
Initial guess               ....       0.003 sec  (  2.3%)
Orbital Transformation      ....       0.000 sec  (  0.0%)
Orbital Orthonormalization  ....       0.000 sec  (  0.0%)
DIIS solution               ....       0.019 sec  ( 14.8%)
SOSCF solution              ....       0.006 sec  (  4.6%)

-------------------------   --------------------
FINAL SINGLE POINT ENERGY       -19.673838660219
-------------------------   --------------------


                            ***************************************
                            *     ORCA property calculations      *
                            ***************************************

                                    ---------------------
                                    Active property flags
                                    ---------------------
   (+) Dipole Moment


------------------------------------------------------------------------------
                       ORCA ELECTRIC PROPERTIES CALCULATION
------------------------------------------------------------------------------

Dipole Moment Calculation                       ... on
Quadrupole Moment Calculation                   ... off
Polarizability Calculation                      ... off
GBWName                                         ... /Users/mattyjones/GoogleDrive/Boise/Code/MorphCT/tests/output_EZ/donor_polymer/chromophores/input_orca/pair/00010-00022.gbw
Electron density file                           ... /Users/mattyjones/GoogleDrive/Boise/Code/MorphCT/tests/output_EZ/donor_polymer/chromophores/input_orca/pair/00010-00022.scfp.tmp

-------------
DIPOLE MOMENT
-------------
                                X             Y             Z
Electronic contribution:     -3.15489      20.20964     -26.42970
Nuclear contribution   :      4.46514     -11.84946      14.62539
                        -----------------------------------------
Total Dipole Moment    :      1.31025       8.36018     -11.80430
                        -----------------------------------------
Magnitude (a.u.)       :     14.52415
Magnitude (Debye)      :     36.91746


Timings for individual modules:

Sum of individual times         ...        0.221 sec (=   0.004 min)
STO integral calculation        ...        0.047 sec (=   0.001 min)  21.2 %
SCF iterations                  ...        0.174 sec (=   0.003 min)  78.8 %
                             ****ORCA TERMINATED NORMALLY****
TOTAL RUN TIME: 0 days 0 hours 0 minutes 0 seconds 528 msec

