
                                 *****************
                                 * O   R   C   A *
                                 *****************

           --- An Ab Initio, DFT and Semiempirical electronic structure package ---

                  #######################################################
                  #                        -***-                        #
                  #  Department of molecular theory and spectroscopy    #
                  #              Directorship: Frank Neese              #
                  # Max Planck Institute for Chemical Energy Conversion #
                  #                  D-45470 Muelheim/Ruhr              #
                  #                       Germany                       #
                  #                                                     #
                  #                  All rights reserved                #
                  #                        -***-                        #
                  #######################################################


                         Program Version 3.0.3 - RELEASE   -


 With contributions from (in alphabetic order):
   Ute Becker             : Parallelization
   Dmytro Bykov           : SCF Hessian
   Dmitry Ganyushin       : Spin-Orbit,Spin-Spin,Magnetic field MRCI
   Andreas Hansen         : Spin unrestricted coupled pair/coupled cluster methods
   Dimitrios Liakos       : Extrapolation schemes; parallel MDCI
   Robert Izsak           : Overlap fitted RIJCOSX, COSX-SCS-MP3
   Christian Kollmar      : KDIIS, OOCD, Brueckner-CCSD(T), CCSD density
   Simone Kossmann        : Meta GGA functionals, TD-DFT gradient, OOMP2, MP2 Hessian
   Taras Petrenko         : DFT Hessian,TD-DFT gradient, ASA and ECA modules, normal mode analysis, Resonance Raman, ABS, FL, XAS/XES, NRVS
   Christoph Reimann      : Effective Core Potentials
   Michael Roemelt        : Restricted open shell CIS
   Christoph Riplinger    : Improved optimizer, TS searches, QM/MM, DLPNO-CCSD
   Barbara Sandhoefer     : DKH picture change effects
   Igor Schapiro          : Molecular dynamics
   Kantharuban Sivalingam : CASSCF convergence, NEVPT2
   Boris Wezisla          : Elementary symmetry handling
   Frank Wennmohs         : Technical directorship


 We gratefully acknowledge several colleagues who have allowed us to
 interface, adapt or use parts of their codes:
   Stefan Grimme, W. Hujo, H. Kruse, T. Risthaus : VdW corrections, initial TS optimization,
                                                   DFT functionals, gCP
   Ed Valeev                                     : LibInt (2-el integral package), F12 methods
   Garnet Chan, S. Sharma, R. Olivares           : DMRG
   Ulf Ekstrom                                   : XCFun DFT Library
   Mihaly Kallay                                 : mrcc  (arbitrary order and MRCC methods)
   Andreas Klamt, Michael Diedenhofen            : otool_cosmo (COSMO solvation model)
   Frank Weinhold                                : gennbo (NPA and NBO analysis)
   Christopher J. Cramer and Donald G. Truhlar   : smd solvation model


 Your calculation uses the libint2 library for the computation of 2-el integrals
 For citations please refer to: http://libint.valeyev.net

 This ORCA versions uses:
   CBLAS   interface :  Fast vector & matrix operations
   LAPACKE interface :  Fast linear algebra routines
   SCALAPACK package :  Parallel linear algebra routines


leaving
================================================================================
                                        WARNINGS
                       Please study these warnings very carefully!
================================================================================
Now building the actual basis set

WARNING: Direct SCF is incompatible with Method<>HF and Method<>DFT
  ===> : conventional SCF is chosen

WARNING: The NDO methods need Guess=HUECKEL or Guess=HCORE or Guess=MOREAD
  ===> : Guess is set to Hueckel

WARNING: The NDO methods need %rel::SOCType==1
  ===> : %rel::SOCType is set to 1

WARNING: The NDO methods cannot have frozencore=1
  ===> : %method FrozenCore=0 end


INFO   : the flag for use of LIBINT has been found!

================================================================================
                                       INPUT FILE
================================================================================
NAME = /Users/mattyjones/GoogleDrive/Boise/Code/MorphCT/tests/output_EZ/donor_polymer/chromophores/input_orca/pair/00010-00011.inp
|  1> # ================================================================
|  2> # Orca input file made by Matty Jones
|  3> # ================================================================
|  4> ! ZINDO/S 
|  5> ! NOPOP
|  6> ! NOMOPRINT
|  7> * xyz 0   1
|  8>  C  -1.24917  0.79567  -2.97185
|  9>  C  -1.85673  -0.37180  -2.50731
| 10>  C  -1.28680  -0.88649  -1.30127
| 11>  C  -0.22384  -0.12159  -0.81102
| 12>  S  -0.04759  1.13363  -1.88050
| 13>  H  -2.72638  -0.88952  -3.03320
| 14>  C  -1.86687  -2.23415  -0.62495
| 15>  C  -3.53226  -2.40944  -0.27119
| 16>  C  -4.83830  -3.01361  -1.18092
| 17>  H  -5.35718  -3.77863  -0.47307
| 18>  H  -5.55823  -2.10912  -1.30339
| 19>  H  -3.53563  -3.06754  0.68525
| 20>  H  -3.86145  -1.33893  0.02553
| 21>  H  -1.36200  -2.46216  0.38875
| 22>  H  -1.62866  -3.12358  -1.33809
| 23>  C  -4.71989  -3.73257  -2.63572
| 24>  C  -6.25754  -4.12529  -3.24857
| 25>  C  -6.86933  -5.63158  -2.81162
| 26>  H  -8.01333  -5.64303  -2.99184
| 27>  H  -6.65155  -5.82904  -1.69308
| 28>  H  -6.36848  -6.44969  -3.45822
| 29>  H  -6.19616  -4.08565  -4.39870
| 30>  H  -7.00094  -3.32557  -2.87826
| 31>  H  -4.20809  -3.02322  -3.38832
| 32>  H  -4.10741  -4.70738  -2.55419
| 33>  C  0.67558  -0.34525  0.58425
| 34>  C  1.49759  0.54119  1.28169
| 35>  C  2.07922  -0.01040  2.46563
| 36>  C  1.71465  -1.33911  2.70426
| 37>  S  0.70604  -1.75566  1.45542
| 38>  H  1.71717  1.60587  0.93147
| 39>  C  3.08929  0.77937  3.45833
| 40>  C  4.42013  1.85638  3.18470
| 41>  C  5.12808  2.66405  1.85366
| 42>  H  6.27181  2.52564  1.92121
| 43>  H  4.73876  2.16841  0.88867
| 44>  H  5.31434  1.22597  3.58269
| 45>  H  4.22061  2.70761  3.94551
| 46>  H  3.60748  -0.02981  4.12430
| 47>  H  2.40246  1.40938  4.17868
| 48>  C  4.77701  4.26276  1.84415
| 49>  C  5.53131  5.21138  0.65859
| 50>  C  5.14080  6.85129  0.72116
| 51>  H  4.80036  7.12942  1.79131
| 52>  H  4.28527  7.06902  -0.02739
| 53>  H  6.07196  7.47747  0.43679
| 54>  H  6.67102  5.11034  0.79247
| 55>  H  5.22317  4.80613  -0.37364
| 56>  H  3.63609  4.39693  1.71253
| 57>  H  5.08695  4.71424  2.86489
| 58>  H  -1.50250  1.34949  -3.83944
| 59>  H  2.01919  -1.95181  3.51386
| 60> *
| 61> 
| 62>                          ****END OF INPUT****
================================================================================

                       ****************************
                       * Single Point Calculation *
                       ****************************

---------------------------------
CARTESIAN COORDINATES (ANGSTROEM)
---------------------------------
  C     -1.249170    0.795670   -2.971850
  C     -1.856730   -0.371800   -2.507310
  C     -1.286800   -0.886490   -1.301270
  C     -0.223840   -0.121590   -0.811020
  S     -0.047590    1.133630   -1.880500
  H     -2.726380   -0.889520   -3.033200
  C     -1.866870   -2.234150   -0.624950
  C     -3.532260   -2.409440   -0.271190
  C     -4.838300   -3.013610   -1.180920
  H     -5.357180   -3.778630   -0.473070
  H     -5.558230   -2.109120   -1.303390
  H     -3.535630   -3.067540    0.685250
  H     -3.861450   -1.338930    0.025530
  H     -1.362000   -2.462160    0.388750
  H     -1.628660   -3.123580   -1.338090
  C     -4.719890   -3.732570   -2.635720
  C     -6.257540   -4.125290   -3.248570
  C     -6.869330   -5.631580   -2.811620
  H     -8.013330   -5.643030   -2.991840
  H     -6.651550   -5.829040   -1.693080
  H     -6.368480   -6.449690   -3.458220
  H     -6.196160   -4.085650   -4.398700
  H     -7.000940   -3.325570   -2.878260
  H     -4.208090   -3.023220   -3.388320
  H     -4.107410   -4.707380   -2.554190
  C      0.675580   -0.345250    0.584250
  C      1.497590    0.541190    1.281690
  C      2.079220   -0.010400    2.465630
  C      1.714650   -1.339110    2.704260
  S      0.706040   -1.755660    1.455420
  H      1.717170    1.605870    0.931470
  C      3.089290    0.779370    3.458330
  C      4.420130    1.856380    3.184700
  C      5.128080    2.664050    1.853660
  H      6.271810    2.525640    1.921210
  H      4.738760    2.168410    0.888670
  H      5.314340    1.225970    3.582690
  H      4.220610    2.707610    3.945510
  H      3.607480   -0.029810    4.124300
  H      2.402460    1.409380    4.178680
  C      4.777010    4.262760    1.844150
  C      5.531310    5.211380    0.658590
  C      5.140800    6.851290    0.721160
  H      4.800360    7.129420    1.791310
  H      4.285270    7.069020   -0.027390
  H      6.071960    7.477470    0.436790
  H      6.671020    5.110340    0.792470
  H      5.223170    4.806130   -0.373640
  H      3.636090    4.396930    1.712530
  H      5.086950    4.714240    2.864890
  H     -1.502500    1.349490   -3.839440
  H      2.019190   -1.951810    3.513860

----------------------------
CARTESIAN COORDINATES (A.U.)
----------------------------
  NO LB      ZA    FRAG    MASS        X           Y           Z
   0 C     4.0000    0    12.011         -2.360589194710410          1.503598392977122         -5.615982611093871
   1 C     4.0000    0    12.011         -3.508711204635606         -0.702600176591921         -4.738129232842093
   2 C     4.0000    0    12.011         -2.431699589129867         -1.675223320459850         -2.459043926287707
   3 C     4.0000    0    12.011         -0.422996297816933         -0.229771800623485         -1.532605689132813
   4 S     6.0000    0    32.060         -0.089932066713312          2.142250237197148         -3.553629994838914
   5 H     1.0000    0     1.008         -5.152111537000222         -1.680949190645632         -5.731917309409940
   6 C     4.0000    0    12.011         -3.527873027633567         -4.221931642100165         -1.180984347394086
   7 C     4.0000    0    12.011         -6.675004033804680         -4.553181736115221         -0.512474830258104
   8 C     4.0000    0    12.011         -9.143061953751193         -5.694897574446423         -2.231615386070284
   9 H     1.0000    0     1.008        -10.123603050120250         -7.140575861418859         -0.893972742174126
  10 H     1.0000    0     1.008        -10.503532489345119         -3.985659183575990         -2.463050145691621
  11 H     1.0000    0     1.008         -6.681372410875995         -5.796810504848796          1.294934833269538
  12 H     1.0000    0     1.008         -7.297082979830217         -2.530211012491181          0.048244708199010
  13 H     1.0000    0     1.008         -2.573806994400745         -4.652808097895549          0.734631034561887
  14 H     1.0000    0     1.008         -3.077721365272186         -5.902710757393743         -2.528623642538688
  15 C     4.0000    0    12.011         -8.919299482233578         -7.053535075690446         -4.980788965698921
  16 C     4.0000    0    12.011        -11.825036872057588         -7.795668323004000         -6.138907626872561
  17 C     4.0000    0    12.011        -12.981152423529272        -10.642143901268241         -5.313191792655670
  18 H     1.0000    0     1.008        -15.142999120735183        -10.663781265501642         -5.653758236510957
  19 H     1.0000    0     1.008        -12.569607866083903        -11.015289223672333         -3.199457522819392
  20 H     1.0000    0     1.008        -12.034683089354813        -12.188147748690559         -6.535088710849150
  21 H     1.0000    0     1.008        -11.709045481957503         -7.720759579055362         -8.312338345279409
  22 H     1.0000    0     1.008        -13.229859280014647         -6.284416539184496         -5.439123142220182
  23 H     1.0000    0     1.008         -7.952137646892680         -5.713057842593406         -6.402996854088056
  24 H     1.0000    0     1.008         -7.761880019729488         -8.895659008298221         -4.826719594000322
  25 C     4.0000    0    12.011          1.276661181554519         -0.652427947736312          1.104072493743491
  26 C     4.0000    0    12.011          2.830034960899127          1.022700886416842          2.422043088585529
  27 C     4.0000    0    12.011          3.929156372171744         -0.019653151792781          4.659365447580256
  28 C     4.0000    0    12.011          3.240218915528074         -2.530551163195288          5.110310794917885
  29 S     6.0000    0    32.060          1.334222239593761         -3.317716584280185          2.750345209831668
  30 H     1.0000    0     1.008          3.244981025385556          3.034654506680120          1.760223201963628
  31 C     4.0000    0    12.011          5.837912048261583          1.472795856994206          6.535296580723882
  32 C     4.0000    0    12.011          8.352835176329343          3.508049800488733          6.018210818699010
  33 C     4.0000    0    12.011          9.690666792838892          5.034324907072911          3.502909745404467
  34 H     1.0000    0     1.008         11.852003263988646          4.772767912876870          3.630560745750848
  35 H     1.0000    0     1.008          8.954958614380670          4.097701046056182          1.679342923431799
  36 H     1.0000    0     1.008         10.042647182543064          2.316747548403437          6.770302922738329
  37 H     1.0000    0     1.008          7.975797018089374          5.116641377466520          7.455933358647638
  38 H     1.0000    0     1.008          6.817149233598236         -0.056332736052193          7.793797494131418
  39 H     1.0000    0     1.008          4.539991447700451          2.663342218625934          7.896560801294056
  40 C     4.0000    0    12.011          9.027240639003159          8.055448974634155          3.484938449870876
  41 C     4.0000    0    12.011         10.452661061819960          9.848080979794533          1.244554734539197
  42 C     4.0000    0    12.011          9.714704109262369         12.947061764073332          1.362794898738650
  43 H     1.0000    0     1.008          9.071365744230221         13.472651293700849          3.385085320954477
  44 H     1.0000    0     1.008          8.097986709908721         13.358511835212006         -0.051759598808103
  45 H     1.0000    0     1.008         11.474341496124483         14.130370474612143          0.825413478035463
  46 H     1.0000    0     1.008         12.606400833911350          9.657143051223128          1.497551269348574
  47 H     1.0000    0     1.008          9.870360850913464          9.082269464022945         -0.706077272678337
  48 H     1.0000    0     1.008          6.871214298289724          8.308993530022370          3.236212696124162
  49 H     1.0000    0     1.008          9.612942356950711          8.908622529576922          5.413857503809655
  50 H     1.0000    0     1.008         -2.839313516216681          2.550166520465390         -7.255490107622611
  51 H     1.0000    0     1.008          3.815716112352452         -3.688386365448838          6.640233072940529

--------------------------------
INTERNAL COORDINATES (ANGSTROEM)
--------------------------------
 C      0   0   0   0.000000     0.000     0.000
 C      1   0   0   1.395676     0.000     0.000
 C      2   1   0   1.429776   114.101     0.000
 C      3   2   1   1.398321   113.693     0.000
 S      1   2   3   1.658028   105.480     0.000
 H      2   1   3   1.140564   123.928   180.473
 C      3   2   1   1.615573   120.682   180.107
 C      7   3   2   1.711548   121.421   307.098
 C      8   7   3   1.702460   132.249    89.751
 H      9   8   7   1.164278   104.489   129.761
 H      9   8   7   1.162497   104.790   242.588
 H      8   7   3   1.160984   103.365   212.752
 H      8   7   3   1.158620   103.578   325.534
 H      7   3   2   1.155193   112.029   185.097
 H      7   3   2   1.164645   107.895    67.222
 C      9   8   7   1.627073   125.364     6.720
 C     16   9   8   1.701229   110.997   182.822
 C     17  16   9   1.683485   116.200   271.461
 H     18  17  16   1.158165   109.112   162.058
 H     18  17  16   1.156525   109.594    42.093
 H     18  17  16   1.156826   109.290   281.758
 H     17  16   9   1.152449   107.664   150.242
 H     17  16   9   1.152964   107.876    32.355
 H     16   9   8   1.153917   110.109   302.271
 H     16   9   8   1.154138   110.406    63.006
 C      4   3   2   1.675040   128.842   177.824
 C     26   4   3   1.395671   130.368   198.080
 C     27  26   4   1.429776   114.102   178.401
 C     28  27  26   1.398330   113.693     0.000
 S     26   4   3   1.658047   124.133    16.218
 H     27  26   4   1.142109   123.510   356.749
 C     28  27  26   1.621552   124.920   179.090
 C     32  28  27   1.733770   133.163   318.750
 C     33  32  28   1.710319   137.215     7.996
 H     34  33  32   1.154053   107.941   225.751
 H     34  33  32   1.152577   107.980   343.926
 H     33  32  28   1.164227   101.493   246.267
 H     33  32  28   1.158979   102.738   134.823
 H     32  28  27   1.169106   106.722   196.142
 H     32  28  27   1.177944   105.763    83.257
 C     34  33  32   1.636831   112.147   105.331
 C     41  34  33   1.695406   117.073   174.562
 C     42  41  34   1.686926   114.519   180.815
 H     43  42  41   1.156926   109.641    24.012
 H     43  42  41   1.157439   109.268   263.871
 H     43  42  41   1.157595   109.301   144.053
 H     42  41  34   1.151986   108.049   301.278
 H     42  41  34   1.150946   108.121    60.024
 H     41  34  33   1.156297   109.003   296.284
 H     41  34  33   1.158364   108.552    54.420
 H      1   2   3   1.060002   127.260   179.999
 H     29  28  27   1.059999   127.206   180.000

---------------------------
INTERNAL COORDINATES (A.U.)
---------------------------
 C      0   0   0   0.000000     0.000     0.000
 C      1   0   0   2.637446     0.000     0.000
 C      2   1   0   2.701884   114.101     0.000
 C      3   2   1   2.642443   113.693     0.000
 S      1   2   3   3.133219   105.480     0.000
 H      2   1   3   2.155353   123.928   180.473
 C      3   2   1   3.052991   120.682   180.107
 C      7   3   2   3.234357   121.421   307.098
 C      8   7   3   3.217183   132.249    89.751
 H      9   8   7   2.200167   104.489   129.761
 H      9   8   7   2.196802   104.790   242.588
 H      8   7   3   2.193942   103.365   212.752
 H      8   7   3   2.189475   103.578   325.534
 H      7   3   2   2.182998   112.029   185.097
 H      7   3   2   2.200860   107.895    67.222
 C      9   8   7   3.074723   125.364     6.720
 C     16   9   8   3.214858   110.997   182.822
 C     17  16   9   3.181326   116.200   271.461
 H     18  17  16   2.188615   109.112   162.058
 H     18  17  16   2.185516   109.594    42.093
 H     18  17  16   2.186084   109.290   281.758
 H     17  16   9   2.177812   107.664   150.242
 H     17  16   9   2.178786   107.876    32.355
 H     16   9   8   2.180586   110.109   302.271
 H     16   9   8   2.181004   110.406    63.006
 C      4   3   2   3.165367   128.842   177.824
 C     26   4   3   2.637437   130.368   198.080
 C     27  26   4   2.701885   114.102   178.401
 C     28  27  26   2.642460   113.693     0.000
 S     26   4   3   3.133256   124.133    16.218
 H     27  26   4   2.158273   123.510   356.749
 C     28  27  26   3.064289   124.920   179.090
 C     32  28  27   3.276351   133.163   318.750
 C     33  32  28   3.232035   137.215     7.996
 H     34  33  32   2.180844   107.941   225.751
 H     34  33  32   2.178056   107.980   343.926
 H     33  32  28   2.200070   101.493   246.267
 H     33  32  28   2.190153   102.738   134.823
 H     32  28  27   2.209290   106.722   196.142
 H     32  28  27   2.225992   105.763    83.257
 C     34  33  32   3.093161   112.147   105.331
 C     41  34  33   3.203853   117.073   174.562
 C     42  41  34   3.187827   114.519   180.815
 H     43  42  41   2.186272   109.641    24.012
 H     43  42  41   2.187243   109.268   263.871
 H     43  42  41   2.187538   109.301   144.053
 H     42  41  34   2.176938   108.049   301.278
 H     42  41  34   2.174973   108.121    60.024
 H     41  34  33   2.185086   109.003   296.284
 H     41  34  33   2.188991   108.552    54.420
 H      1   2   3   2.003114   127.260   179.999
 H     29  28  27   2.003108   127.206   180.000

----------------------------
SLATER BASIS SET DIM= 118
----------------------------
  0 C     2 shells
 l=0 nsto= 1
    2       1.625000000000        1.000000000000
 l=1 nsto= 1
    2       1.625000000000        1.000000000000
  1 C     2 shells
 l=0 nsto= 1
    2       1.625000000000        1.000000000000
 l=1 nsto= 1
    2       1.625000000000        1.000000000000
  2 C     2 shells
 l=0 nsto= 1
    2       1.625000000000        1.000000000000
 l=1 nsto= 1
    2       1.625000000000        1.000000000000
  3 C     2 shells
 l=0 nsto= 1
    2       1.625000000000        1.000000000000
 l=1 nsto= 1
    2       1.625000000000        1.000000000000
  4 S     2 shells
 l=0 nsto= 1
    3       1.925000000000        1.000000000000
 l=1 nsto= 1
    3       1.925000000000        1.000000000000
  5 H     1 shells
 l=0 nsto= 1
    1       1.200000000000        1.000000000000
  6 C     2 shells
 l=0 nsto= 1
    2       1.625000000000        1.000000000000
 l=1 nsto= 1
    2       1.625000000000        1.000000000000
  7 C     2 shells
 l=0 nsto= 1
    2       1.625000000000        1.000000000000
 l=1 nsto= 1
    2       1.625000000000        1.000000000000
  8 C     2 shells
 l=0 nsto= 1
    2       1.625000000000        1.000000000000
 l=1 nsto= 1
    2       1.625000000000        1.000000000000
  9 H     1 shells
 l=0 nsto= 1
    1       1.200000000000        1.000000000000
 10 H     1 shells
 l=0 nsto= 1
    1       1.200000000000        1.000000000000
 11 H     1 shells
 l=0 nsto= 1
    1       1.200000000000        1.000000000000
 12 H     1 shells
 l=0 nsto= 1
    1       1.200000000000        1.000000000000
 13 H     1 shells
 l=0 nsto= 1
    1       1.200000000000        1.000000000000
 14 H     1 shells
 l=0 nsto= 1
    1       1.200000000000        1.000000000000
 15 C     2 shells
 l=0 nsto= 1
    2       1.625000000000        1.000000000000
 l=1 nsto= 1
    2       1.625000000000        1.000000000000
 16 C     2 shells
 l=0 nsto= 1
    2       1.625000000000        1.000000000000
 l=1 nsto= 1
    2       1.625000000000        1.000000000000
 17 C     2 shells
 l=0 nsto= 1
    2       1.625000000000        1.000000000000
 l=1 nsto= 1
    2       1.625000000000        1.000000000000
 18 H     1 shells
 l=0 nsto= 1
    1       1.200000000000        1.000000000000
 19 H     1 shells
 l=0 nsto= 1
    1       1.200000000000        1.000000000000
 20 H     1 shells
 l=0 nsto= 1
    1       1.200000000000        1.000000000000
 21 H     1 shells
 l=0 nsto= 1
    1       1.200000000000        1.000000000000
 22 H     1 shells
 l=0 nsto= 1
    1       1.200000000000        1.000000000000
 23 H     1 shells
 l=0 nsto= 1
    1       1.200000000000        1.000000000000
 24 H     1 shells
 l=0 nsto= 1
    1       1.200000000000        1.000000000000
 25 C     2 shells
 l=0 nsto= 1
    2       1.625000000000        1.000000000000
 l=1 nsto= 1
    2       1.625000000000        1.000000000000
 26 C     2 shells
 l=0 nsto= 1
    2       1.625000000000        1.000000000000
 l=1 nsto= 1
    2       1.625000000000        1.000000000000
 27 C     2 shells
 l=0 nsto= 1
    2       1.625000000000        1.000000000000
 l=1 nsto= 1
    2       1.625000000000        1.000000000000
 28 C     2 shells
 l=0 nsto= 1
    2       1.625000000000        1.000000000000
 l=1 nsto= 1
    2       1.625000000000        1.000000000000
 29 S     2 shells
 l=0 nsto= 1
    3       1.925000000000        1.000000000000
 l=1 nsto= 1
    3       1.925000000000        1.000000000000
 30 H     1 shells
 l=0 nsto= 1
    1       1.200000000000        1.000000000000
 31 C     2 shells
 l=0 nsto= 1
    2       1.625000000000        1.000000000000
 l=1 nsto= 1
    2       1.625000000000        1.000000000000
 32 C     2 shells
 l=0 nsto= 1
    2       1.625000000000        1.000000000000
 l=1 nsto= 1
    2       1.625000000000        1.000000000000
 33 C     2 shells
 l=0 nsto= 1
    2       1.625000000000        1.000000000000
 l=1 nsto= 1
    2       1.625000000000        1.000000000000
 34 H     1 shells
 l=0 nsto= 1
    1       1.200000000000        1.000000000000
 35 H     1 shells
 l=0 nsto= 1
    1       1.200000000000        1.000000000000
 36 H     1 shells
 l=0 nsto= 1
    1       1.200000000000        1.000000000000
 37 H     1 shells
 l=0 nsto= 1
    1       1.200000000000        1.000000000000
 38 H     1 shells
 l=0 nsto= 1
    1       1.200000000000        1.000000000000
 39 H     1 shells
 l=0 nsto= 1
    1       1.200000000000        1.000000000000
 40 C     2 shells
 l=0 nsto= 1
    2       1.625000000000        1.000000000000
 l=1 nsto= 1
    2       1.625000000000        1.000000000000
 41 C     2 shells
 l=0 nsto= 1
    2       1.625000000000        1.000000000000
 l=1 nsto= 1
    2       1.625000000000        1.000000000000
 42 C     2 shells
 l=0 nsto= 1
    2       1.625000000000        1.000000000000
 l=1 nsto= 1
    2       1.625000000000        1.000000000000
 43 H     1 shells
 l=0 nsto= 1
    1       1.200000000000        1.000000000000
 44 H     1 shells
 l=0 nsto= 1
    1       1.200000000000        1.000000000000
 45 H     1 shells
 l=0 nsto= 1
    1       1.200000000000        1.000000000000
 46 H     1 shells
 l=0 nsto= 1
    1       1.200000000000        1.000000000000
 47 H     1 shells
 l=0 nsto= 1
    1       1.200000000000        1.000000000000
 48 H     1 shells
 l=0 nsto= 1
    1       1.200000000000        1.000000000000
 49 H     1 shells
 l=0 nsto= 1
    1       1.200000000000        1.000000000000
 50 H     1 shells
 l=0 nsto= 1
    1       1.200000000000        1.000000000000
 51 H     1 shells
 l=0 nsto= 1
    1       1.200000000000        1.000000000000
------------------------------------------------------------------------------
                           ORCA NDO INTEGRAL CALCULATION
------------------------------------------------------------------------------

--------------
NDO PARAMETERS
--------------

Gamma integral treatment              ... Mataga-Nishimoto
Nuclear repulsuion treatment          ... Direct (ZA*ZB/RAB)
Interaction factors:
s-s (sigma) =    1.0000
s-p (sigma) =    1.0000
s-d (sigma) =    1.0000
p-p (sigma) =    1.2670  p-p(pi) =    0.5850
p-d (sigma) =    1.0000  p-d(pi) =    1.0000
d-d (sigma) =    1.0000  d-d(pi) =    1.0000 d-d (delta) =    1.0000

fGamma parameter for Mataga-Nishimoto gamma integrals:    1.2000

--------------------------
Parameters for Element H :
--------------------------
 One-electron parameters (in eV)
  U(s)  =   -13.060000 Beta(s) =    12.000000 Neff(s) =     1.000000
 One-center electron repulsion parameters (in eV)
  G(s,s)=    12.850000
--------------------------
Parameters for Element C :
--------------------------
 One-electron parameters (in eV)
  U(s)  =   -50.870766 Beta(s) =    17.000000 Neff(s) =     2.000000
  U(p)  =   -41.599980 Beta(p) =    17.000000 Neff(p) =     2.000000 
 One-center electron repulsion parameters (in eV)
  G(s,s)=    11.110000
  G(s,p)=    11.110000 G(p,p)  =    11.110000
 Slater-Condon parameters (in eV)
 F2(p,p)=     4.5098 G1(s,p)=    6.8977
--------------------------
Parameters for Element S :
--------------------------
 One-electron parameters (in eV)
  U(s)  =   -69.509597 Beta(s) =    15.000000 Neff(s) =     2.000000
  U(p)  =   -60.725746 Beta(p) =    15.000000 Neff(p) =     4.000000 
 One-center electron repulsion parameters (in eV)
  G(s,s)=    10.090000
  G(s,p)=    10.090000 G(p,p)  =    10.090000
 Slater-Condon parameters (in eV)
 F2(p,p)=     4.5377 G1(s,p)=    3.0756

 Number of atoms                    ....   52
 Number of basis functions          ....  118

 Overlap integrals                  .... done
 One electron matrix                .... done
 Nuclear repulsion                  .... done
 Integral list                      .... done
 Electron-electron repulsion        .... done
-------------------------------------------------------------------------------
                                 ORCA SCF
-------------------------------------------------------------------------------

------------
SCF SETTINGS
------------
Hamiltonian:
 ZDO-Hamiltonian        Method          .... INDO


General Settings:
 Integral files         IntName         .... /Users/mattyjones/GoogleDrive/Boise/Code/MorphCT/tests/output_EZ/donor_polymer/chromophores/input_orca/pair/00010-00011
 Hartree-Fock type      HFTyp           .... RHF
 Total Charge           Charge          ....    0
 Multiplicity           Mult            ....    1
 Number of Electrons    NEL             ....  122
 Basis Dimension        Dim             ....  118
 Nuclear Repulsion      ENuc            ....    823.8055532172 Eh

Convergence Acceleration:
 DIIS                   CNVDIIS         .... on
   Start iteration      DIISMaxIt       ....    12
   Startup error        DIISStart       ....  0.200000
   # of expansion vecs  DIISMaxEq       ....     5
   Bias factor          DIISBfac        ....   1.050
   Max. coefficient     DIISMaxC        ....  10.000
 Newton-Raphson         CNVNR           .... off
 SOSCF                  CNVSOSCF        .... on
   Start iteration      SOSCFMaxIt      ....   150
   Startup grad/error   SOSCFStart      ....  0.003300
 Level Shifting         CNVShift        .... on
   Level shift para.    LevelShift      ....    0.2500
   Turn off err/grad.   ShiftErr        ....    0.0010
 Zerner damping         CNVZerner       .... off
 Static damping         CNVDamp         .... on
   Fraction old density DampFac         ....    0.7000
   Max. Damping (<1)    DampMax         ....    0.9800
   Min. Damping (>=0)   DampMin         ....    0.0000
   Turn off err/grad.   DampErr         ....    0.1000
 Fernandez-Rico         CNVRico         .... off

SCF Procedure:
 Maximum # iterations   MaxIter         ....   125
 SCF integral mode      SCFMode         .... Conventional
 Integral Buffer length BufferLength    .... 1048576
 Integral index format  IndFormat       ....     0
 Integral value format  ValFormat       ....     0
 Integral Storage       Thresh          ....  1.000e-08 Eh

Convergence Tolerance:
 Convergence Check Mode ConvCheckMode   .... Total+1el-Energy
 Energy Change          TolE            ....  1.000e-06 Eh
 1-El. energy change                    ....  1.000e-03 Eh
 Orbital Gradient       TolG            ....  5.000e-05
 Orbital Rotation angle TolX            ....  5.000e-05
 DIIS Error             TolErr          ....  1.000e-06


Diagonalization of the overlap matrix:
Smallest eigenvalue                        ... 1.676e-01
Time for diagonalization                   ...    0.003 sec
Threshold for overlap eigenvalues          ... 1.000e-08
Number of eigenvalues below threshold      ... 0
Time for construction of square roots      ...    0.001 sec
Total time needed                          ...    0.004 sec

-------------------------------
INITIAL GUESS: EXTENDED HUECKEL
-------------------------------
EHT matrix was read from disk
EHT matrix was diagonalized
Initial density was built
                      ------------------
                      INITIAL GUESS DONE
                      ------------------

 InCore treatment chosen:
   Memory dedicated               ...    1024 MB
   Memory needed                  ...      0 MB
   Number of tiny    integrals    ...       0
   Number of small   integrals    ...       0
   Number of regular integrals    ...    7153

--------------
SCF ITERATIONS
--------------
ITER       Energy         Delta-E        Max-DP      RMS-DP      [F,P]     Damp
  0     -8.3588545497   0.000000000000 0.03944745  0.00142602  0.0915288 0.7000
  1     -8.3986252764  -0.039770726666 0.03765904  0.00134873  0.0657030 0.7000
                               ***Turning on DIIS***
  2     -8.4283842782  -0.029759001799 0.09670524  0.00348867  0.0432267 0.0000
  3     -8.5105088896  -0.082124611428 0.01521961  0.00074355  0.0157417 0.0000
  4     -8.4884725924   0.022036297162 0.01051083  0.00051071  0.0065091 0.0000
  5     -8.5061386746  -0.017666082146 0.00737632  0.00034105  0.0038033 0.0000
  6     -8.5099113322  -0.003772657618 0.00549064  0.00024797  0.0020784 0.0000
                      *** Initiating the SOSCF procedure ***
                           *** Shutting down DIIS ***
                      *** Re-Reading the Fockian *** 
                      *** Removing any level shift *** 
ITER      Energy       Delta-E        Grad      Rot      Max-DP    RMS-DP
  7     -8.50663207   0.0032792635  0.003151  0.003151  0.003366  0.000144
  8     -8.50640453   0.0002275361  0.000889  0.002542  0.001763  0.000072
  9     -8.50642269  -0.0000181575  0.000370  0.002333  0.001990  0.000075
 10     -8.50642928  -0.0000065866  0.000034  0.000092  0.000133  0.000005
                 **** Energy Check signals convergence ****
              ***Rediagonalizing the Fockian in SOSCF/NRSCF***

               *****************************************************
               *                     SUCCESS                       *
               *           SCF CONVERGED AFTER  11 CYCLES          *
               *****************************************************


----------------
TOTAL SCF ENERGY
----------------

Total Energy       :           -8.50642936 Eh            -231.47171 eV

Components:
Nuclear Repulsion  :          823.80555322 Eh           22416.88876 eV
Electronic Energy  :         -832.31198257 Eh          -22648.36047 eV

One Electron Energy:        -1575.70478743 Eh          -42877.10710 eV
Two Electron Energy:          743.39280486 Eh           20228.74663 eV


---------------
SCF CONVERGENCE
---------------

  Last Energy change         ...   -7.8889e-08  Tolerance :   1.0000e-06
  Last MAX-Density change    ...    5.8641e-05  Tolerance :   1.0000e-05
  Last RMS-Density change    ...    2.0399e-06  Tolerance :   1.0000e-06
  Last Orbital Gradient      ...    1.5069e-05  Tolerance :   5.0000e-05
  Last Orbital Rotation      ...    5.1772e-05  Tolerance :   5.0000e-05

             **** THE GBW FILE WAS UPDATED (/Users/mattyjones/GoogleDrive/Boise/Code/MorphCT/tests/output_EZ/donor_polymer/chromophores/input_orca/pair/00010-00011.gbw) ****
             **** DENSITY FILE WAS UPDATED (/Users/mattyjones/GoogleDrive/Boise/Code/MorphCT/tests/output_EZ/donor_polymer/chromophores/input_orca/pair/00010-00011.scfp.tmp) ****
             **** ENERGY FILE WAS UPDATED (/Users/mattyjones/GoogleDrive/Boise/Code/MorphCT/tests/output_EZ/donor_polymer/chromophores/input_orca/pair/00010-00011.en.tmp) ****
----------------
ORBITAL ENERGIES
----------------

  NO   OCC          E(Eh)            E(eV) 
   0   2.0000      -1.566286       -42.6208 
   1   2.0000      -1.541081       -41.9350 
   2   2.0000      -1.393447       -37.9176 
   3   2.0000      -1.388618       -37.7862 
   4   2.0000      -1.293073       -35.1863 
   5   2.0000      -1.282563       -34.9003 
   6   2.0000      -1.205630       -32.8069 
   7   2.0000      -1.177801       -32.0496 
   8   2.0000      -1.135897       -30.9093 
   9   2.0000      -1.078500       -29.3475 
  10   2.0000      -1.050807       -28.5939 
  11   2.0000      -1.039238       -28.2791 
  12   2.0000      -0.976957       -26.5843 
  13   2.0000      -0.957408       -26.0524 
  14   2.0000      -0.902437       -24.5565 
  15   2.0000      -0.886426       -24.1209 
  16   2.0000      -0.880103       -23.9488 
  17   2.0000      -0.860972       -23.4282 
  18   2.0000      -0.831123       -22.6160 
  19   2.0000      -0.782948       -21.3051 
  20   2.0000      -0.762225       -20.7412 
  21   2.0000      -0.746043       -20.3009 
  22   2.0000      -0.719158       -19.5693 
  23   2.0000      -0.708737       -19.2857 
  24   2.0000      -0.689393       -18.7593 
  25   2.0000      -0.680689       -18.5225 
  26   2.0000      -0.679014       -18.4769 
  27   2.0000      -0.676622       -18.4118 
  28   2.0000      -0.639575       -17.4037 
  29   2.0000      -0.629038       -17.1170 
  30   2.0000      -0.616786       -16.7836 
  31   2.0000      -0.608493       -16.5579 
  32   2.0000      -0.597926       -16.2704 
  33   2.0000      -0.596524       -16.2322 
  34   2.0000      -0.581639       -15.8272 
  35   2.0000      -0.560723       -15.2581 
  36   2.0000      -0.552793       -15.0422 
  37   2.0000      -0.549840       -14.9619 
  38   2.0000      -0.545944       -14.8559 
  39   2.0000      -0.532193       -14.4817 
  40   2.0000      -0.528164       -14.3721 
  41   2.0000      -0.524628       -14.2758 
  42   2.0000      -0.518336       -14.1047 
  43   2.0000      -0.514154       -13.9908 
  44   2.0000      -0.504717       -13.7341 
  45   2.0000      -0.496471       -13.5097 
  46   2.0000      -0.494676       -13.4608 
  47   2.0000      -0.488739       -13.2993 
  48   2.0000      -0.486266       -13.2320 
  49   2.0000      -0.478318       -13.0157 
  50   2.0000      -0.472113       -12.8469 
  51   2.0000      -0.468816       -12.7571 
  52   2.0000      -0.464345       -12.6355 
  53   2.0000      -0.461859       -12.5678 
  54   2.0000      -0.453361       -12.3366 
  55   2.0000      -0.437765       -11.9122 
  56   2.0000      -0.429933       -11.6991 
  57   2.0000      -0.362741        -9.8707 
  58   2.0000      -0.357975        -9.7410 
  59   2.0000      -0.329501        -8.9662 
  60   2.0000      -0.282073        -7.6756 
  61   0.0000      -0.012761        -0.3473 
  62   0.0000       0.022149         0.6027 
  63   0.0000       0.037922         1.0319 
  64   0.0000       0.055560         1.5119 
  65   0.0000       0.063180         1.7192 
  66   0.0000       0.071311         1.9405 
  67   0.0000       0.081111         2.2072 
  68   0.0000       0.085198         2.3184 
  69   0.0000       0.087089         2.3698 
  70   0.0000       0.101696         2.7673 
  71   0.0000       0.105139         2.8610 
  72   0.0000       0.117087         3.1861 
  73   0.0000       0.123271         3.3544 
  74   0.0000       0.131360         3.5745 
  75   0.0000       0.139196         3.7877 
  76   0.0000       0.144339         3.9277 
  77   0.0000       0.154533         4.2051 
  78   0.0000       0.158994         4.3265 
  79   0.0000       0.161412         4.3922 
  80   0.0000       0.172918         4.7053 
  81   0.0000       0.173196         4.7129 
  82   0.0000       0.185518         5.0482 
  83   0.0000       0.202031         5.4976 
  84   0.0000       0.210747         5.7347 
  85   0.0000       0.227564         6.1923 
  86   0.0000       0.229727         6.2512 
  87   0.0000       0.232617         6.3298 
  88   0.0000       0.233846         6.3633 
  89   0.0000       0.236096         6.4245 
  90   0.0000       0.236152         6.4260 
  91   0.0000       0.237584         6.4650 
  92   0.0000       0.238175         6.4811 
  93   0.0000       0.238990         6.5032 
  94   0.0000       0.239192         6.5088 
  95   0.0000       0.239530         6.5179 
  96   0.0000       0.240914         6.5556 
  97   0.0000       0.241930         6.5832 
  98   0.0000       0.242227         6.5913 
  99   0.0000       0.244147         6.6436 
 100   0.0000       0.245019         6.6673 
 101   0.0000       0.258921         7.0456 
 102   0.0000       0.260740         7.0951 
 103   0.0000       0.267747         7.2858 
 104   0.0000       0.274486         7.4691 
 105   0.0000       0.282018         7.6741 
 106   0.0000       0.289022         7.8647 
 107   0.0000       0.297777         8.1029 
 108   0.0000       0.307392         8.3646 
 109   0.0000       0.322744         8.7823 
 110   0.0000       0.339247         9.2314 
 111   0.0000       0.340230         9.2581 
 112   0.0000       0.356098         9.6899 
 113   0.0000       0.364004         9.9051 
 114   0.0000       0.402038        10.9400 
 115   0.0000       0.411075        11.1859 
 116   0.0000       0.426311        11.6005 
 117   0.0000       0.464504        12.6398 
-------
TIMINGS
-------

Total SCF time: 0 days 0 hours 0 min 0 sec 

Total time                  ....       0.149 sec
Sum of individual times     ....       0.126 sec  ( 84.4%)

Fock matrix formation       ....       0.055 sec  ( 36.5%)
Diagonalization             ....       0.023 sec  ( 15.6%)
Density matrix formation    ....       0.005 sec  (  3.4%)
Population analysis         ....       0.000 sec  (  0.0%)
Initial guess               ....       0.002 sec  (  1.6%)
Orbital Transformation      ....       0.000 sec  (  0.0%)
Orbital Orthonormalization  ....       0.000 sec  (  0.0%)
DIIS solution               ....       0.033 sec  ( 22.3%)
SOSCF solution              ....       0.007 sec  (  4.9%)

-------------------------   --------------------
FINAL SINGLE POINT ENERGY        -8.506429355575
-------------------------   --------------------


                            ***************************************
                            *     ORCA property calculations      *
                            ***************************************

                                    ---------------------
                                    Active property flags
                                    ---------------------
   (+) Dipole Moment


------------------------------------------------------------------------------
                       ORCA ELECTRIC PROPERTIES CALCULATION
------------------------------------------------------------------------------

Dipole Moment Calculation                       ... on
Quadrupole Moment Calculation                   ... off
Polarizability Calculation                      ... off
GBWName                                         ... /Users/mattyjones/GoogleDrive/Boise/Code/MorphCT/tests/output_EZ/donor_polymer/chromophores/input_orca/pair/00010-00011.gbw
Electron density file                           ... /Users/mattyjones/GoogleDrive/Boise/Code/MorphCT/tests/output_EZ/donor_polymer/chromophores/input_orca/pair/00010-00011.scfp.tmp

-------------
DIPOLE MOMENT
-------------
                                X             Y             Z
Electronic contribution:     19.90126     -17.94368      -7.79768
Nuclear contribution   :    -10.45480       9.84043       4.32919
                        -----------------------------------------
Total Dipole Moment    :      9.44646      -8.10325      -3.46849
                        -----------------------------------------
Magnitude (a.u.)       :     12.92009
Magnitude (Debye)      :     32.84026


Timings for individual modules:

Sum of individual times         ...        0.242 sec (=   0.004 min)
STO integral calculation        ...        0.046 sec (=   0.001 min)  18.8 %
SCF iterations                  ...        0.197 sec (=   0.003 min)  81.2 %
                             ****ORCA TERMINATED NORMALLY****
TOTAL RUN TIME: 0 days 0 hours 0 minutes 0 seconds 547 msec

