
                                 *****************
                                 * O   R   C   A *
                                 *****************

           --- An Ab Initio, DFT and Semiempirical electronic structure package ---

                  #######################################################
                  #                        -***-                        #
                  #  Department of molecular theory and spectroscopy    #
                  #              Directorship: Frank Neese              #
                  # Max Planck Institute for Chemical Energy Conversion #
                  #                  D-45470 Muelheim/Ruhr              #
                  #                       Germany                       #
                  #                                                     #
                  #                  All rights reserved                #
                  #                        -***-                        #
                  #######################################################


                         Program Version 3.0.3 - RELEASE   -


 With contributions from (in alphabetic order):
   Ute Becker             : Parallelization
   Dmytro Bykov           : SCF Hessian
   Dmitry Ganyushin       : Spin-Orbit,Spin-Spin,Magnetic field MRCI
   Andreas Hansen         : Spin unrestricted coupled pair/coupled cluster methods
   Dimitrios Liakos       : Extrapolation schemes; parallel MDCI
   Robert Izsak           : Overlap fitted RIJCOSX, COSX-SCS-MP3
   Christian Kollmar      : KDIIS, OOCD, Brueckner-CCSD(T), CCSD density
   Simone Kossmann        : Meta GGA functionals, TD-DFT gradient, OOMP2, MP2 Hessian
   Taras Petrenko         : DFT Hessian,TD-DFT gradient, ASA and ECA modules, normal mode analysis, Resonance Raman, ABS, FL, XAS/XES, NRVS
   Christoph Reimann      : Effective Core Potentials
   Michael Roemelt        : Restricted open shell CIS
   Christoph Riplinger    : Improved optimizer, TS searches, QM/MM, DLPNO-CCSD
   Barbara Sandhoefer     : DKH picture change effects
   Igor Schapiro          : Molecular dynamics
   Kantharuban Sivalingam : CASSCF convergence, NEVPT2
   Boris Wezisla          : Elementary symmetry handling
   Frank Wennmohs         : Technical directorship


 We gratefully acknowledge several colleagues who have allowed us to
 interface, adapt or use parts of their codes:
   Stefan Grimme, W. Hujo, H. Kruse, T. Risthaus : VdW corrections, initial TS optimization,
                                                   DFT functionals, gCP
   Ed Valeev                                     : LibInt (2-el integral package), F12 methods
   Garnet Chan, S. Sharma, R. Olivares           : DMRG
   Ulf Ekstrom                                   : XCFun DFT Library
   Mihaly Kallay                                 : mrcc  (arbitrary order and MRCC methods)
   Andreas Klamt, Michael Diedenhofen            : otool_cosmo (COSMO solvation model)
   Frank Weinhold                                : gennbo (NPA and NBO analysis)
   Christopher J. Cramer and Donald G. Truhlar   : smd solvation model


 Your calculation uses the libint2 library for the computation of 2-el integrals
 For citations please refer to: http://libint.valeyev.net

 This ORCA versions uses:
   CBLAS   interface :  Fast vector & matrix operations
   LAPACKE interface :  Fast linear algebra routines
   SCALAPACK package :  Parallel linear algebra routines


leaving
================================================================================
                                        WARNINGS
                       Please study these warnings very carefully!
================================================================================
Now building the actual basis set

WARNING: Direct SCF is incompatible with Method<>HF and Method<>DFT
  ===> : conventional SCF is chosen

WARNING: The NDO methods need Guess=HUECKEL or Guess=HCORE or Guess=MOREAD
  ===> : Guess is set to Hueckel

WARNING: The NDO methods need %rel::SOCType==1
  ===> : %rel::SOCType is set to 1

WARNING: The NDO methods cannot have frozencore=1
  ===> : %method FrozenCore=0 end


INFO   : the flag for use of LIBINT has been found!

================================================================================
                                       INPUT FILE
================================================================================
NAME = /Users/mattyjones/GoogleDrive/Boise/Code/MorphCT/tests/output_EZ/donor_polymer/chromophores/input_orca/pair/00010-00029.inp
|  1> # ================================================================
|  2> # Orca input file made by Matty Jones
|  3> # ================================================================
|  4> ! ZINDO/S 
|  5> ! NOPOP
|  6> ! NOMOPRINT
|  7> * xyz 0   1
|  8>  C  -7.15727  30.86932  -4.98610
|  9>  C  -7.76483  29.70185  -4.52156
| 10>  C  -7.19489  29.18716  -3.31551
| 11>  C  -6.13194  29.95207  -2.82526
| 12>  S  -5.95568  31.20728  -3.89474
| 13>  H  -8.63448  29.18413  -5.04744
| 14>  C  -7.77497  27.83951  -2.63919
| 15>  C  -9.44036  27.66421  -2.28543
| 16>  C  -10.74639  27.06004  -3.19516
| 17>  H  -11.26527  26.29502  -2.48731
| 18>  H  -11.46633  27.96453  -3.31763
| 19>  H  -9.44372  27.00611  -1.32899
| 20>  H  -9.76955  28.73472  -1.98871
| 21>  H  -7.27010  27.61149  -1.62549
| 22>  H  -7.53676  26.95007  -3.35234
| 23>  C  -10.62799  26.34109  -4.64996
| 24>  C  -12.16564  25.94836  -5.26281
| 25>  C  -12.77743  24.44207  -4.82586
| 26>  H  -13.92143  24.43062  -5.00608
| 27>  H  -12.55965  24.24461  -3.70732
| 28>  H  -12.27657  23.62396  -5.47246
| 29>  H  -12.10425  25.98800  -6.41294
| 30>  H  -12.90904  26.74808  -4.89251
| 31>  H  -10.11619  27.05043  -5.40256
| 32>  H  -10.01550  25.36627  -4.56843
| 33>  C  13.85268  -27.42853  2.64143
| 34>  C  12.52117  -27.15472  2.95770
| 35>  C  12.30023  -26.84500  4.33593
| 36>  C  13.46314  -26.87439  5.11188
| 37>  S  14.68632  -27.27638  4.06656
| 38>  H  11.67663  -27.14121  2.18919
| 39>  C  10.92523  -26.46629  5.13917
| 40>  C  9.37982  -27.19963  5.47634
| 41>  C  7.77572  -27.38579  4.88847
| 42>  H  7.08589  -27.17841  5.80072
| 43>  H  7.62312  -26.52659  4.13234
| 44>  H  9.70684  -28.30473  5.61734
| 45>  H  9.16603  -26.74697  6.52958
| 46>  H  10.55334  -25.47168  4.63353
| 47>  H  11.25811  -26.16970  6.22390
| 48>  C  7.31688  -28.80607  4.23941
| 49>  C  6.99316  -28.89544  2.58856
| 50>  C  6.92348  -27.41913  1.79380
| 51>  H  7.96648  -26.91995  1.81209
| 52>  H  6.14945  -26.73625  2.31869
| 53>  H  6.59576  -27.59496  0.69731
| 54>  H  7.82141  -29.52908  2.09616
| 55>  H  5.97669  -29.42443  2.45125
| 56>  H  8.13826  -29.59557  4.45752
| 57>  H  6.34651  -29.15044  4.77801
| 58>  H  -7.41060  31.42315  -5.85368
| 59>  H  -5.55881  29.76813  -1.95273
| 60>  H  14.24769  -27.68059  1.69063
| 61>  H  13.54562  -26.68035  6.15070
| 62> *
| 63> 
| 64>                          ****END OF INPUT****
================================================================================

                       ****************************
                       * Single Point Calculation *
                       ****************************

---------------------------------
CARTESIAN COORDINATES (ANGSTROEM)
---------------------------------
  C     -7.157270   30.869320   -4.986100
  C     -7.764830   29.701850   -4.521560
  C     -7.194890   29.187160   -3.315510
  C     -6.131940   29.952070   -2.825260
  S     -5.955680   31.207280   -3.894740
  H     -8.634480   29.184130   -5.047440
  C     -7.774970   27.839510   -2.639190
  C     -9.440360   27.664210   -2.285430
  C    -10.746390   27.060040   -3.195160
  H    -11.265270   26.295020   -2.487310
  H    -11.466330   27.964530   -3.317630
  H     -9.443720   27.006110   -1.328990
  H     -9.769550   28.734720   -1.988710
  H     -7.270100   27.611490   -1.625490
  H     -7.536760   26.950070   -3.352340
  C    -10.627990   26.341090   -4.649960
  C    -12.165640   25.948360   -5.262810
  C    -12.777430   24.442070   -4.825860
  H    -13.921430   24.430620   -5.006080
  H    -12.559650   24.244610   -3.707320
  H    -12.276570   23.623960   -5.472460
  H    -12.104250   25.988000   -6.412940
  H    -12.909040   26.748080   -4.892510
  H    -10.116190   27.050430   -5.402560
  H    -10.015500   25.366270   -4.568430
  C     13.852680  -27.428530    2.641430
  C     12.521170  -27.154720    2.957700
  C     12.300230  -26.845000    4.335930
  C     13.463140  -26.874390    5.111880
  S     14.686320  -27.276380    4.066560
  H     11.676630  -27.141210    2.189190
  C     10.925230  -26.466290    5.139170
  C      9.379820  -27.199630    5.476340
  C      7.775720  -27.385790    4.888470
  H      7.085890  -27.178410    5.800720
  H      7.623120  -26.526590    4.132340
  H      9.706840  -28.304730    5.617340
  H      9.166030  -26.746970    6.529580
  H     10.553340  -25.471680    4.633530
  H     11.258110  -26.169700    6.223900
  C      7.316880  -28.806070    4.239410
  C      6.993160  -28.895440    2.588560
  C      6.923480  -27.419130    1.793800
  H      7.966480  -26.919950    1.812090
  H      6.149450  -26.736250    2.318690
  H      6.595760  -27.594960    0.697310
  H      7.821410  -29.529080    2.096160
  H      5.976690  -29.424430    2.451250
  H      8.138260  -29.595570    4.457520
  H      6.346510  -29.150440    4.778010
  H     -7.410600   31.423150   -5.853680
  H     -5.558810   29.768130   -1.952730
  H     14.247690  -27.680590    1.690630
  H     13.545620  -26.680350    6.150700

----------------------------
CARTESIAN COORDINATES (A.U.)
----------------------------
  NO LB      ZA    FRAG    MASS        X           Y           Z
   0 C     4.0000    0    12.011        -13.525280166530557         58.334560740377967         -9.422363476344755
   1 C     4.0000    0    12.011        -14.673402176455753         56.128362170808927         -8.544510098092974
   2 C     4.0000    0    12.011        -13.596371663688675         55.155739026940999         -6.265405894277249
   3 C     4.0000    0    12.011        -11.587687269637080         56.601209444038702         -5.338967657122356
   4 S     6.0000    0    32.060        -11.254604141272120         58.973212584598002         -7.359991962828456
   5 H     1.0000    0     1.008        -16.316802508820370         55.150013156755215         -9.538279277399482
   6 C     4.0000    0    12.011        -14.692563999453714         52.609049602562024         -4.987346315383628
   7 C     4.0000    0    12.011        -17.839695005624826         52.277780611285628         -4.318836798247646
   8 C     4.0000    0    12.011        -20.307734028309998         51.136064772954427         -6.037977354059826
   9 H     1.0000    0     1.008        -21.288275124679057         49.690386485981996         -4.700334710163668
  10 H     1.0000    0     1.008        -21.668223461165265         52.845303163824859         -6.269412113681162
  11 H     1.0000    0     1.008        -17.846044485434803         51.034151842552056         -2.511427134720004
  12 H     1.0000    0     1.008        -18.461773951650365         54.300751334909670         -3.758117259790532
  13 H     1.0000    0     1.008        -13.738497966220892         52.178154249505297         -3.071730933427656
  14 H     1.0000    0     1.008        -14.242412337092333         50.928251590007108         -6.335004507789568
  15 C     4.0000    0    12.011        -20.083990454053723         49.777446168971743         -8.787150933688464
  16 C     4.0000    0    12.011        -22.989727843877734         49.035294024396855         -9.945269594862102
  17 C     4.0000    0    12.011        -24.145843395349420         46.188818446132608         -9.119553760645211
  18 H     1.0000    0     1.008        -26.307690092555333         46.167181081899209         -9.460120204500500
  19 H     1.0000    0     1.008        -23.734298837904049         45.815673123728523         -7.005819490808935
  20 H     1.0000    0     1.008        -23.199355163913619         44.642814598710295        -10.341450678838692
  21 H     1.0000    0     1.008        -22.873717556516311         49.110202768345488        -12.118700313268951
  22 H     1.0000    0     1.008        -24.394550251834794         50.546545808216358         -9.245504007471062
  23 H     1.0000    0     1.008        -19.116828618712827         51.117904504807441        -10.209358822077597
  24 H     1.0000    0     1.008        -18.926552094288294         47.935303339102632         -8.633081561989863
  25 C     4.0000    0    12.011         26.177771420848245        -51.832409956043065          4.991579301923612
  26 C     4.0000    0    12.011         23.661582176270759        -51.314984043314091          5.589242986298886
  27 C     4.0000    0    12.011         23.244066084242199        -50.729698065115997          8.193720235853172
  28 C     4.0000    0    12.011         25.441647502640560        -50.785237116191944          9.660053229469368
  29 S     6.0000    0    32.060         27.753122715130356        -51.544888124766949          7.684684707158805
  30 H     1.0000    0     1.008         22.065632867128905        -51.289453843244814          4.136969555119065
  31 C     4.0000    0    12.011         20.645692650100479        -50.014039880938682          9.711623855664079
  32 C     4.0000    0    12.011         17.725290985477237        -51.399851643988491         10.348782816238309
  33 C     4.0000    0    12.011         14.693981294054154        -51.751643061079278          9.237869513890020
  34 H     1.0000    0     1.008         13.390391515091258        -51.359751655426685         10.961772179559683
  35 H     1.0000    0     1.008         14.405609086017773        -50.127990366814132          7.808990892248145
  36 H     1.0000    0     1.008         18.343269225792163        -53.488187994584870         10.615234201121204
  37 H     1.0000    0     1.008         17.321286435306209        -50.544448212207705         12.339117969529527
  38 H     1.0000    0     1.008         19.942922398156504        -48.134499370879269          8.756102733308138
  39 H     1.0000    0     1.008         21.274744685560183        -49.453566006878980         11.761466484912479
  40 C     4.0000    0    12.011         13.826899354765729        -54.435583294564950          8.011323869407095
  41 C     4.0000    0    12.011         13.215157210692739        -54.604468119153495          4.891669481223196
  42 C     4.0000    0    12.011         13.083481093681106        -51.814646530384209          3.389790739027941
  43 H     1.0000    0     1.008         15.054465451360972        -50.871333038853400          3.424353830017361
  44 H     1.0000    0     1.008         11.620776374242041        -50.524190348052059          4.381689089461867
  45 H     1.0000    0     1.008         12.464180045072435        -52.146917076511585          1.317724930444628
  46 H     1.0000    0     1.008         14.780322881113017        -55.801874186651354          3.961168332880371
  47 H     1.0000    0     1.008         11.294307287345806        -55.604114346736495          4.632191185774468
  48 H     1.0000    0     1.008         15.379082606645968        -55.927522077295777          8.423492036476658
  49 H     1.0000    0     1.008         11.993165806192563        -55.086348283303408          9.029130365137080
  50 H     1.0000    0     1.008        -14.004004488036827         59.381147765127579        -11.061852075612151
  51 H     1.0000    0     1.008        -10.504628530502794         56.253613218965228         -3.690124913492046
  52 H     1.0000    0     1.008         26.924232141008478        -52.308734325359254          3.194827693791286
  53 H     1.0000    0     1.008         25.597512114166385        -50.418554657165870         11.623138531909442

--------------------------------
INTERNAL COORDINATES (ANGSTROEM)
--------------------------------
 C      0   0   0   0.000000     0.000     0.000
 C      1   0   0   1.395676     0.000     0.000
 C      2   1   0   1.429788   114.101     0.000
 C      3   2   1   1.398319   113.693     0.000
 S      1   2   3   1.658042   105.480     0.000
 H      2   1   3   1.140559   123.928   180.473
 C      3   2   1   1.615569   120.682   180.107
 C      7   3   2   1.711549   121.422   307.098
 C      8   7   3   1.702452   132.249    89.751
 H      9   8   7   1.164278   104.489   129.762
 H      9   8   7   1.162504   104.790   242.588
 H      8   7   3   1.160984   103.365   212.752
 H      8   7   3   1.158620   103.577   325.534
 H      7   3   2   1.155195   112.029   185.097
 H      7   3   2   1.164659   107.895    67.222
 C      9   8   7   1.627068   125.364     6.720
 C     16   9   8   1.701232   110.998   182.822
 C     17  16   9   1.683485   116.201   271.461
 H     18  17  16   1.158165   109.112   162.058
 H     18  17  16   1.156525   109.594    42.093
 H     18  17  16   1.156830   109.290   281.758
 H     17  16   9   1.152449   107.664   150.243
 H     17  16   9   1.152960   107.876    32.356
 H     16   9   8   1.153910   110.109   302.272
 H     16   9   8   1.154151   110.406    63.006
 C     21  18  17  57.921755   137.761   131.026
 C     26  21  18   1.395678    55.142    62.429
 C     27  26  21   1.429776   114.102   261.726
 C     28  27  26   1.398328   113.693     0.000
 S     26  21  18   1.658041   105.446   324.093
 H     27  26  21   1.141945   123.737    79.795
 C     28  27  26   1.636839   130.765   179.958
 C     32  28  27   1.743492   137.917    60.190
 C     33  32  28   1.718541   143.782   271.100
 H     34  33  32   1.162356   105.436   227.052
 H     34  33  32   1.154662   105.472   340.775
 H     33  32  28   1.161064   100.030    37.083
 H     33  32  28   1.166157   100.014   147.716
 H     32  28  27   1.176105   104.496   298.138
 H     32  28  27   1.172780   105.900   186.582
 C     34  33  32   1.627577   119.609   105.953
 C     41  34  33   1.684662   119.423   248.496
 C     42  41  34   1.678091   115.177   349.923
 H     43  42  41   1.156445   109.561    65.463
 H     43  42  41   1.157997   109.383   304.880
 H     43  42  41   1.157846   109.067   185.454
 H     42  41  34   1.153237   108.032   110.881
 H     42  41  34   1.154078   108.068   228.990
 H     41  34  33   1.159977   108.622    10.797
 H     41  34  33   1.162023   108.010   127.231
 H      1   2   3   1.059999   127.260   180.000
 H      4   3   2   1.060010   127.205   180.001
 H     26  21  18   1.059994   104.599   187.951
 H     29  28  27   1.060001   127.206   179.999

---------------------------
INTERNAL COORDINATES (A.U.)
---------------------------
 C      0   0   0   0.000000     0.000     0.000
 C      1   0   0   2.637446     0.000     0.000
 C      2   1   0   2.701908   114.101     0.000
 C      3   2   1   2.642439   113.693     0.000
 S      1   2   3   3.133245   105.480     0.000
 H      2   1   3   2.155344   123.928   180.473
 C      3   2   1   3.052982   120.682   180.107
 C      7   3   2   3.234359   121.422   307.098
 C      8   7   3   3.217169   132.249    89.751
 H      9   8   7   2.200167   104.489   129.762
 H      9   8   7   2.196813   104.790   242.588
 H      8   7   3   2.193942   103.365   212.752
 H      8   7   3   2.189475   103.577   325.534
 H      7   3   2   2.183001   112.029   185.097
 H      7   3   2   2.200886   107.895    67.222
 C      9   8   7   3.074713   125.364     6.720
 C     16   9   8   3.214862   110.998   182.822
 C     17  16   9   3.181326   116.201   271.461
 H     18  17  16   2.188615   109.112   162.058
 H     18  17  16   2.185516   109.594    42.093
 H     18  17  16   2.186092   109.290   281.758
 H     17  16   9   2.177813   107.664   150.243
 H     17  16   9   2.178779   107.876    32.356
 H     16   9   8   2.180575   110.109   302.272
 H     16   9   8   2.181030   110.406    63.006
 C     21  18  17 109.456253   137.761   131.026
 C     26  21  18   2.637449    55.142    62.429
 C     27  26  21   2.701885   114.102   261.726
 C     28  27  26   2.642457   113.693     0.000
 S     26  21  18   3.133244   105.446   324.093
 H     27  26  21   2.157963   123.737    79.795
 C     28  27  26   3.093177   130.765   179.958
 C     32  28  27   3.294722   137.917    60.190
 C     33  32  28   3.247572   143.782   271.100
 H     34  33  32   2.196535   105.436   227.052
 H     34  33  32   2.181995   105.472   340.775
 H     33  32  28   2.194093   100.030    37.083
 H     33  32  28   2.203717   100.014   147.716
 H     32  28  27   2.222516   104.496   298.138
 H     32  28  27   2.216234   105.900   186.582
 C     34  33  32   3.075676   119.609   105.953
 C     41  34  33   3.183551   119.423   248.496
 C     42  41  34   3.171133   115.177   349.923
 H     43  42  41   2.185364   109.561    65.463
 H     43  42  41   2.188297   109.383   304.880
 H     43  42  41   2.188011   109.067   185.454
 H     42  41  34   2.179302   108.032   110.881
 H     42  41  34   2.180891   108.068   228.990
 H     41  34  33   2.192039   108.622    10.797
 H     41  34  33   2.195906   108.010   127.231
 H      1   2   3   2.003109   127.260   180.000
 H      4   3   2   2.003128   127.205   180.001
 H     26  21  18   2.003099   104.599   187.951
 H     29  28  27   2.003111   127.206   179.999

----------------------------
SLATER BASIS SET DIM= 120
----------------------------
  0 C     2 shells
 l=0 nsto= 1
    2       1.625000000000        1.000000000000
 l=1 nsto= 1
    2       1.625000000000        1.000000000000
  1 C     2 shells
 l=0 nsto= 1
    2       1.625000000000        1.000000000000
 l=1 nsto= 1
    2       1.625000000000        1.000000000000
  2 C     2 shells
 l=0 nsto= 1
    2       1.625000000000        1.000000000000
 l=1 nsto= 1
    2       1.625000000000        1.000000000000
  3 C     2 shells
 l=0 nsto= 1
    2       1.625000000000        1.000000000000
 l=1 nsto= 1
    2       1.625000000000        1.000000000000
  4 S     2 shells
 l=0 nsto= 1
    3       1.925000000000        1.000000000000
 l=1 nsto= 1
    3       1.925000000000        1.000000000000
  5 H     1 shells
 l=0 nsto= 1
    1       1.200000000000        1.000000000000
  6 C     2 shells
 l=0 nsto= 1
    2       1.625000000000        1.000000000000
 l=1 nsto= 1
    2       1.625000000000        1.000000000000
  7 C     2 shells
 l=0 nsto= 1
    2       1.625000000000        1.000000000000
 l=1 nsto= 1
    2       1.625000000000        1.000000000000
  8 C     2 shells
 l=0 nsto= 1
    2       1.625000000000        1.000000000000
 l=1 nsto= 1
    2       1.625000000000        1.000000000000
  9 H     1 shells
 l=0 nsto= 1
    1       1.200000000000        1.000000000000
 10 H     1 shells
 l=0 nsto= 1
    1       1.200000000000        1.000000000000
 11 H     1 shells
 l=0 nsto= 1
    1       1.200000000000        1.000000000000
 12 H     1 shells
 l=0 nsto= 1
    1       1.200000000000        1.000000000000
 13 H     1 shells
 l=0 nsto= 1
    1       1.200000000000        1.000000000000
 14 H     1 shells
 l=0 nsto= 1
    1       1.200000000000        1.000000000000
 15 C     2 shells
 l=0 nsto= 1
    2       1.625000000000        1.000000000000
 l=1 nsto= 1
    2       1.625000000000        1.000000000000
 16 C     2 shells
 l=0 nsto= 1
    2       1.625000000000        1.000000000000
 l=1 nsto= 1
    2       1.625000000000        1.000000000000
 17 C     2 shells
 l=0 nsto= 1
    2       1.625000000000        1.000000000000
 l=1 nsto= 1
    2       1.625000000000        1.000000000000
 18 H     1 shells
 l=0 nsto= 1
    1       1.200000000000        1.000000000000
 19 H     1 shells
 l=0 nsto= 1
    1       1.200000000000        1.000000000000
 20 H     1 shells
 l=0 nsto= 1
    1       1.200000000000        1.000000000000
 21 H     1 shells
 l=0 nsto= 1
    1       1.200000000000        1.000000000000
 22 H     1 shells
 l=0 nsto= 1
    1       1.200000000000        1.000000000000
 23 H     1 shells
 l=0 nsto= 1
    1       1.200000000000        1.000000000000
 24 H     1 shells
 l=0 nsto= 1
    1       1.200000000000        1.000000000000
 25 C     2 shells
 l=0 nsto= 1
    2       1.625000000000        1.000000000000
 l=1 nsto= 1
    2       1.625000000000        1.000000000000
 26 C     2 shells
 l=0 nsto= 1
    2       1.625000000000        1.000000000000
 l=1 nsto= 1
    2       1.625000000000        1.000000000000
 27 C     2 shells
 l=0 nsto= 1
    2       1.625000000000        1.000000000000
 l=1 nsto= 1
    2       1.625000000000        1.000000000000
 28 C     2 shells
 l=0 nsto= 1
    2       1.625000000000        1.000000000000
 l=1 nsto= 1
    2       1.625000000000        1.000000000000
 29 S     2 shells
 l=0 nsto= 1
    3       1.925000000000        1.000000000000
 l=1 nsto= 1
    3       1.925000000000        1.000000000000
 30 H     1 shells
 l=0 nsto= 1
    1       1.200000000000        1.000000000000
 31 C     2 shells
 l=0 nsto= 1
    2       1.625000000000        1.000000000000
 l=1 nsto= 1
    2       1.625000000000        1.000000000000
 32 C     2 shells
 l=0 nsto= 1
    2       1.625000000000        1.000000000000
 l=1 nsto= 1
    2       1.625000000000        1.000000000000
 33 C     2 shells
 l=0 nsto= 1
    2       1.625000000000        1.000000000000
 l=1 nsto= 1
    2       1.625000000000        1.000000000000
 34 H     1 shells
 l=0 nsto= 1
    1       1.200000000000        1.000000000000
 35 H     1 shells
 l=0 nsto= 1
    1       1.200000000000        1.000000000000
 36 H     1 shells
 l=0 nsto= 1
    1       1.200000000000        1.000000000000
 37 H     1 shells
 l=0 nsto= 1
    1       1.200000000000        1.000000000000
 38 H     1 shells
 l=0 nsto= 1
    1       1.200000000000        1.000000000000
 39 H     1 shells
 l=0 nsto= 1
    1       1.200000000000        1.000000000000
 40 C     2 shells
 l=0 nsto= 1
    2       1.625000000000        1.000000000000
 l=1 nsto= 1
    2       1.625000000000        1.000000000000
 41 C     2 shells
 l=0 nsto= 1
    2       1.625000000000        1.000000000000
 l=1 nsto= 1
    2       1.625000000000        1.000000000000
 42 C     2 shells
 l=0 nsto= 1
    2       1.625000000000        1.000000000000
 l=1 nsto= 1
    2       1.625000000000        1.000000000000
 43 H     1 shells
 l=0 nsto= 1
    1       1.200000000000        1.000000000000
 44 H     1 shells
 l=0 nsto= 1
    1       1.200000000000        1.000000000000
 45 H     1 shells
 l=0 nsto= 1
    1       1.200000000000        1.000000000000
 46 H     1 shells
 l=0 nsto= 1
    1       1.200000000000        1.000000000000
 47 H     1 shells
 l=0 nsto= 1
    1       1.200000000000        1.000000000000
 48 H     1 shells
 l=0 nsto= 1
    1       1.200000000000        1.000000000000
 49 H     1 shells
 l=0 nsto= 1
    1       1.200000000000        1.000000000000
 50 H     1 shells
 l=0 nsto= 1
    1       1.200000000000        1.000000000000
 51 H     1 shells
 l=0 nsto= 1
    1       1.200000000000        1.000000000000
 52 H     1 shells
 l=0 nsto= 1
    1       1.200000000000        1.000000000000
 53 H     1 shells
 l=0 nsto= 1
    1       1.200000000000        1.000000000000
------------------------------------------------------------------------------
                           ORCA NDO INTEGRAL CALCULATION
------------------------------------------------------------------------------

--------------
NDO PARAMETERS
--------------

Gamma integral treatment              ... Mataga-Nishimoto
Nuclear repulsuion treatment          ... Direct (ZA*ZB/RAB)
Interaction factors:
s-s (sigma) =    1.0000
s-p (sigma) =    1.0000
s-d (sigma) =    1.0000
p-p (sigma) =    1.2670  p-p(pi) =    0.5850
p-d (sigma) =    1.0000  p-d(pi) =    1.0000
d-d (sigma) =    1.0000  d-d(pi) =    1.0000 d-d (delta) =    1.0000

fGamma parameter for Mataga-Nishimoto gamma integrals:    1.2000

--------------------------
Parameters for Element H :
--------------------------
 One-electron parameters (in eV)
  U(s)  =   -13.060000 Beta(s) =    12.000000 Neff(s) =     1.000000
 One-center electron repulsion parameters (in eV)
  G(s,s)=    12.850000
--------------------------
Parameters for Element C :
--------------------------
 One-electron parameters (in eV)
  U(s)  =   -50.870766 Beta(s) =    17.000000 Neff(s) =     2.000000
  U(p)  =   -41.599980 Beta(p) =    17.000000 Neff(p) =     2.000000 
 One-center electron repulsion parameters (in eV)
  G(s,s)=    11.110000
  G(s,p)=    11.110000 G(p,p)  =    11.110000
 Slater-Condon parameters (in eV)
 F2(p,p)=     4.5098 G1(s,p)=    6.8977
--------------------------
Parameters for Element S :
--------------------------
 One-electron parameters (in eV)
  U(s)  =   -69.509597 Beta(s) =    15.000000 Neff(s) =     2.000000
  U(p)  =   -60.725746 Beta(p) =    15.000000 Neff(p) =     4.000000 
 One-center electron repulsion parameters (in eV)
  G(s,s)=    10.090000
  G(s,p)=    10.090000 G(p,p)  =    10.090000
 Slater-Condon parameters (in eV)
 F2(p,p)=     4.5377 G1(s,p)=    3.0756

 Number of atoms                    ....   54
 Number of basis functions          ....  120

 Overlap integrals                  .... done
 One electron matrix                .... done
 Nuclear repulsion                  .... done
 Integral list                      .... done
 Electron-electron repulsion        .... done
-------------------------------------------------------------------------------
                                 ORCA SCF
-------------------------------------------------------------------------------

------------
SCF SETTINGS
------------
Hamiltonian:
 ZDO-Hamiltonian        Method          .... INDO


General Settings:
 Integral files         IntName         .... /Users/mattyjones/GoogleDrive/Boise/Code/MorphCT/tests/output_EZ/donor_polymer/chromophores/input_orca/pair/00010-00029
 Hartree-Fock type      HFTyp           .... RHF
 Total Charge           Charge          ....    0
 Multiplicity           Mult            ....    1
 Number of Electrons    NEL             ....  124
 Basis Dimension        Dim             ....  120
 Nuclear Repulsion      ENuc            ....    621.3533422295 Eh

Convergence Acceleration:
 DIIS                   CNVDIIS         .... on
   Start iteration      DIISMaxIt       ....    12
   Startup error        DIISStart       ....  0.200000
   # of expansion vecs  DIISMaxEq       ....     5
   Bias factor          DIISBfac        ....   1.050
   Max. coefficient     DIISMaxC        ....  10.000
 Newton-Raphson         CNVNR           .... off
 SOSCF                  CNVSOSCF        .... on
   Start iteration      SOSCFMaxIt      ....   150
   Startup grad/error   SOSCFStart      ....  0.003300
 Level Shifting         CNVShift        .... on
   Level shift para.    LevelShift      ....    0.2500
   Turn off err/grad.   ShiftErr        ....    0.0010
 Zerner damping         CNVZerner       .... off
 Static damping         CNVDamp         .... on
   Fraction old density DampFac         ....    0.7000
   Max. Damping (<1)    DampMax         ....    0.9800
   Min. Damping (>=0)   DampMin         ....    0.0000
   Turn off err/grad.   DampErr         ....    0.1000
 Fernandez-Rico         CNVRico         .... off

SCF Procedure:
 Maximum # iterations   MaxIter         ....   125
 SCF integral mode      SCFMode         .... Conventional
 Integral Buffer length BufferLength    .... 1048576
 Integral index format  IndFormat       ....     0
 Integral value format  ValFormat       ....     0
 Integral Storage       Thresh          ....  1.000e-08 Eh

Convergence Tolerance:
 Convergence Check Mode ConvCheckMode   .... Total+1el-Energy
 Energy Change          TolE            ....  1.000e-06 Eh
 1-El. energy change                    ....  1.000e-03 Eh
 Orbital Gradient       TolG            ....  5.000e-05
 Orbital Rotation angle TolX            ....  5.000e-05
 DIIS Error             TolErr          ....  1.000e-06


Diagonalization of the overlap matrix:
Smallest eigenvalue                        ... 1.698e-01
Time for diagonalization                   ...    0.003 sec
Threshold for overlap eigenvalues          ... 1.000e-08
Number of eigenvalues below threshold      ... 0
Time for construction of square roots      ...    0.001 sec
Total time needed                          ...    0.004 sec

-------------------------------
INITIAL GUESS: EXTENDED HUECKEL
-------------------------------
EHT matrix was read from disk
EHT matrix was diagonalized
Initial density was built
                      ------------------
                      INITIAL GUESS DONE
                      ------------------

 InCore treatment chosen:
   Memory dedicated               ...    1024 MB
   Memory needed                  ...      0 MB
   Number of tiny    integrals    ...       0
   Number of small   integrals    ...       0
   Number of regular integrals    ...    7392

--------------
SCF ITERATIONS
--------------
ITER       Energy         Delta-E        Max-DP      RMS-DP      [F,P]     Damp
  0    -20.4005816314   0.000000000000 0.04478782  0.00143980  0.0886225 0.7000
  1    -20.4422599886  -0.041678357209 0.04416036  0.00135704  0.0645791 0.7000
                               ***Turning on DIIS***
  2    -20.4731144421  -0.030854453552 0.11781060  0.00348770  0.0469625 0.0000
  3    -20.5539895272  -0.080875085090 0.02384847  0.00072865  0.0170648 0.0000
  4    -20.5390484218   0.014941105377 0.01595175  0.00049796  0.0083017 0.0000
  5    -20.5557531658  -0.016704743922 0.01123361  0.00033574  0.0049691 0.0000
  6    -20.5585845336  -0.002831367816 0.00836972  0.00023758  0.0030612 0.0000
                      *** Initiating the SOSCF procedure ***
                           *** Shutting down DIIS ***
                      *** Re-Reading the Fockian *** 
                      *** Removing any level shift *** 
ITER      Energy       Delta-E        Grad      Rot      Max-DP    RMS-DP
  7    -20.55425926   0.0043252738  0.003001  0.003001  0.005020  0.000134
  8    -20.55233457   0.0019246929  0.000802  0.002204  0.002527  0.000062
  9    -20.55234911  -0.0000145472  0.000355  0.002156  0.002814  0.000066
 10    -20.55235443  -0.0000053168  0.000029  0.000056  0.000128  0.000004
                 **** Energy Check signals convergence ****
              ***Rediagonalizing the Fockian in SOSCF/NRSCF***

               *****************************************************
               *                     SUCCESS                       *
               *           SCF CONVERGED AFTER  11 CYCLES          *
               *****************************************************


----------------
TOTAL SCF ENERGY
----------------

Total Energy       :          -20.55235447 Eh            -559.25800 eV

Components:
Nuclear Repulsion  :          621.35334223 Eh           16907.88402 eV
Electronic Energy  :         -641.90569670 Eh          -17467.14202 eV

One Electron Energy:        -1193.52915689 Eh          -32477.57949 eV
Two Electron Energy:          551.62346019 Eh           15010.43747 eV


---------------
SCF CONVERGENCE
---------------

  Last Energy change         ...   -4.3990e-08  Tolerance :   1.0000e-06
  Last MAX-Density change    ...    3.3406e-05  Tolerance :   1.0000e-05
  Last RMS-Density change    ...    1.1119e-06  Tolerance :   1.0000e-06
  Last Orbital Gradient      ...    7.3055e-06  Tolerance :   5.0000e-05
  Last Orbital Rotation      ...    2.0264e-05  Tolerance :   5.0000e-05

             **** THE GBW FILE WAS UPDATED (/Users/mattyjones/GoogleDrive/Boise/Code/MorphCT/tests/output_EZ/donor_polymer/chromophores/input_orca/pair/00010-00029.gbw) ****
             **** DENSITY FILE WAS UPDATED (/Users/mattyjones/GoogleDrive/Boise/Code/MorphCT/tests/output_EZ/donor_polymer/chromophores/input_orca/pair/00010-00029.scfp.tmp) ****
             **** ENERGY FILE WAS UPDATED (/Users/mattyjones/GoogleDrive/Boise/Code/MorphCT/tests/output_EZ/donor_polymer/chromophores/input_orca/pair/00010-00029.en.tmp) ****
----------------
ORBITAL ENERGIES
----------------

  NO   OCC          E(Eh)            E(eV) 
   0   2.0000      -1.556299       -42.3490 
   1   2.0000      -1.555261       -42.3208 
   2   2.0000      -1.396181       -37.9920 
   3   2.0000      -1.393215       -37.9113 
   4   2.0000      -1.289003       -35.0755 
   5   2.0000      -1.277963       -34.7751 
   6   2.0000      -1.187476       -32.3129 
   7   2.0000      -1.179980       -32.1089 
   8   2.0000      -1.111064       -30.2336 
   9   2.0000      -1.106539       -30.1105 
  10   2.0000      -1.057029       -28.7632 
  11   2.0000      -1.051538       -28.6138 
  12   2.0000      -0.990915       -26.9642 
  13   2.0000      -0.968440       -26.3526 
  14   2.0000      -0.906729       -24.6733 
  15   2.0000      -0.897596       -24.4248 
  16   2.0000      -0.853563       -23.2266 
  17   2.0000      -0.836568       -22.7642 
  18   2.0000      -0.829434       -22.5700 
  19   2.0000      -0.823131       -22.3985 
  20   2.0000      -0.775862       -21.1123 
  21   2.0000      -0.768094       -20.9009 
  22   2.0000      -0.737153       -20.0589 
  23   2.0000      -0.724667       -19.7192 
  24   2.0000      -0.704807       -19.1788 
  25   2.0000      -0.690024       -18.7765 
  26   2.0000      -0.678042       -18.4505 
  27   2.0000      -0.669918       -18.2294 
  28   2.0000      -0.639074       -17.3901 
  29   2.0000      -0.633203       -17.2303 
  30   2.0000      -0.620760       -16.8917 
  31   2.0000      -0.607044       -16.5185 
  32   2.0000      -0.597332       -16.2542 
  33   2.0000      -0.590749       -16.0751 
  34   2.0000      -0.581828       -15.8323 
  35   2.0000      -0.574354       -15.6290 
  36   2.0000      -0.571204       -15.5433 
  37   2.0000      -0.566727       -15.4214 
  38   2.0000      -0.549404       -14.9501 
  39   2.0000      -0.545855       -14.8535 
  40   2.0000      -0.534694       -14.5498 
  41   2.0000      -0.528216       -14.3735 
  42   2.0000      -0.519268       -14.1300 
  43   2.0000      -0.512443       -13.9443 
  44   2.0000      -0.503486       -13.7006 
  45   2.0000      -0.503412       -13.6985 
  46   2.0000      -0.499823       -13.6009 
  47   2.0000      -0.497545       -13.5389 
  48   2.0000      -0.492892       -13.4123 
  49   2.0000      -0.490797       -13.3553 
  50   2.0000      -0.476646       -12.9702 
  51   2.0000      -0.470275       -12.7968 
  52   2.0000      -0.464309       -12.6345 
  53   2.0000      -0.461468       -12.5572 
  54   2.0000      -0.459976       -12.5166 
  55   2.0000      -0.439138       -11.9496 
  56   2.0000      -0.437354       -11.9010 
  57   2.0000      -0.430292       -11.7088 
  58   2.0000      -0.357358        -9.7242 
  59   2.0000      -0.356609        -9.7038 
  60   2.0000      -0.305683        -8.3180 
  61   2.0000      -0.305416        -8.3108 
  62   0.0000       0.005723         0.1557 
  63   0.0000       0.007546         0.2053 
  64   0.0000       0.040010         1.0887 
  65   0.0000       0.063096         1.7169 
  66   0.0000       0.072799         1.9810 
  67   0.0000       0.075602         2.0572 
  68   0.0000       0.084204         2.2913 
  69   0.0000       0.084791         2.3073 
  70   0.0000       0.099253         2.7008 
  71   0.0000       0.103071         2.8047 
  72   0.0000       0.106279         2.8920 
  73   0.0000       0.106883         2.9084 
  74   0.0000       0.120796         3.2870 
  75   0.0000       0.123281         3.3547 
  76   0.0000       0.143400         3.9021 
  77   0.0000       0.145698         3.9647 
  78   0.0000       0.156477         4.2580 
  79   0.0000       0.158460         4.3119 
  80   0.0000       0.164300         4.4708 
  81   0.0000       0.164923         4.4878 
  82   0.0000       0.173378         4.7178 
  83   0.0000       0.174040         4.7359 
  84   0.0000       0.202075         5.4987 
  85   0.0000       0.205815         5.6005 
  86   0.0000       0.220255         5.9934 
  87   0.0000       0.229400         6.2423 
  88   0.0000       0.231873         6.3096 
  89   0.0000       0.232346         6.3225 
  90   0.0000       0.233775         6.3614 
  91   0.0000       0.235627         6.4117 
  92   0.0000       0.236767         6.4428 
  93   0.0000       0.237408         6.4602 
  94   0.0000       0.239045         6.5047 
  95   0.0000       0.239089         6.5059 
  96   0.0000       0.239370         6.5136 
  97   0.0000       0.241005         6.5581 
  98   0.0000       0.241705         6.5771 
  99   0.0000       0.242145         6.5891 
 100   0.0000       0.244238         6.6461 
 101   0.0000       0.244595         6.6558 
 102   0.0000       0.255925         6.9641 
 103   0.0000       0.259065         7.0495 
 104   0.0000       0.265292         7.2190 
 105   0.0000       0.266416         7.2495 
 106   0.0000       0.274516         7.4700 
 107   0.0000       0.279183         7.5970 
 108   0.0000       0.304810         8.2943 
 109   0.0000       0.307572         8.3695 
 110   0.0000       0.308854         8.4044 
 111   0.0000       0.309832         8.4310 
 112   0.0000       0.340928         9.2771 
 113   0.0000       0.341860         9.3025 
 114   0.0000       0.361953         9.8492 
 115   0.0000       0.364588         9.9209 
 116   0.0000       0.404819        11.0157 
 117   0.0000       0.414725        11.2852 
 118   0.0000       0.428978        11.6731 
 119   0.0000       0.438106        11.9215 
-------
TIMINGS
-------

Total SCF time: 0 days 0 hours 0 min 0 sec 

Total time                  ....       0.135 sec
Sum of individual times     ....       0.095 sec  ( 70.4%)

Fock matrix formation       ....       0.047 sec  ( 34.8%)
Diagonalization             ....       0.024 sec  ( 17.8%)
Density matrix formation    ....       0.005 sec  (  3.8%)
Population analysis         ....       0.000 sec  (  0.0%)
Initial guess               ....       0.003 sec  (  2.5%)
Orbital Transformation      ....       0.000 sec  (  0.0%)
Orbital Orthonormalization  ....       0.000 sec  (  0.0%)
DIIS solution               ....       0.011 sec  (  7.8%)
SOSCF solution              ....       0.005 sec  (  3.8%)

-------------------------   --------------------
FINAL SINGLE POINT ENERGY       -20.552354474935
-------------------------   --------------------


                            ***************************************
                            *     ORCA property calculations      *
                            ***************************************

                                    ---------------------
                                    Active property flags
                                    ---------------------
   (+) Dipole Moment


------------------------------------------------------------------------------
                       ORCA ELECTRIC PROPERTIES CALCULATION
------------------------------------------------------------------------------

Dipole Moment Calculation                       ... on
Quadrupole Moment Calculation                   ... off
Polarizability Calculation                      ... off
GBWName                                         ... /Users/mattyjones/GoogleDrive/Boise/Code/MorphCT/tests/output_EZ/donor_polymer/chromophores/input_orca/pair/00010-00029.gbw
Electron density file                           ... /Users/mattyjones/GoogleDrive/Boise/Code/MorphCT/tests/output_EZ/donor_polymer/chromophores/input_orca/pair/00010-00029.scfp.tmp

-------------
DIPOLE MOMENT
-------------
                                X             Y             Z
Electronic contribution:    236.02325      96.59745       8.16489
Nuclear contribution   :   -125.48995     -56.85308      -3.41632
                        -----------------------------------------
Total Dipole Moment    :    110.53331      39.74437       4.74857
                        -----------------------------------------
Magnitude (a.u.)       :    117.55754
Magnitude (Debye)      :    298.80752


Timings for individual modules:

Sum of individual times         ...        0.229 sec (=   0.004 min)
STO integral calculation        ...        0.054 sec (=   0.001 min)  23.7 %
SCF iterations                  ...        0.175 sec (=   0.003 min)  76.3 %
                             ****ORCA TERMINATED NORMALLY****
TOTAL RUN TIME: 0 days 0 hours 0 minutes 0 seconds 560 msec

