
                                 *****************
                                 * O   R   C   A *
                                 *****************

           --- An Ab Initio, DFT and Semiempirical electronic structure package ---

                  #######################################################
                  #                        -***-                        #
                  #  Department of molecular theory and spectroscopy    #
                  #              Directorship: Frank Neese              #
                  # Max Planck Institute for Chemical Energy Conversion #
                  #                  D-45470 Muelheim/Ruhr              #
                  #                       Germany                       #
                  #                                                     #
                  #                  All rights reserved                #
                  #                        -***-                        #
                  #######################################################


                         Program Version 3.0.3 - RELEASE   -


 With contributions from (in alphabetic order):
   Ute Becker             : Parallelization
   Dmytro Bykov           : SCF Hessian
   Dmitry Ganyushin       : Spin-Orbit,Spin-Spin,Magnetic field MRCI
   Andreas Hansen         : Spin unrestricted coupled pair/coupled cluster methods
   Dimitrios Liakos       : Extrapolation schemes; parallel MDCI
   Robert Izsak           : Overlap fitted RIJCOSX, COSX-SCS-MP3
   Christian Kollmar      : KDIIS, OOCD, Brueckner-CCSD(T), CCSD density
   Simone Kossmann        : Meta GGA functionals, TD-DFT gradient, OOMP2, MP2 Hessian
   Taras Petrenko         : DFT Hessian,TD-DFT gradient, ASA and ECA modules, normal mode analysis, Resonance Raman, ABS, FL, XAS/XES, NRVS
   Christoph Reimann      : Effective Core Potentials
   Michael Roemelt        : Restricted open shell CIS
   Christoph Riplinger    : Improved optimizer, TS searches, QM/MM, DLPNO-CCSD
   Barbara Sandhoefer     : DKH picture change effects
   Igor Schapiro          : Molecular dynamics
   Kantharuban Sivalingam : CASSCF convergence, NEVPT2
   Boris Wezisla          : Elementary symmetry handling
   Frank Wennmohs         : Technical directorship


 We gratefully acknowledge several colleagues who have allowed us to
 interface, adapt or use parts of their codes:
   Stefan Grimme, W. Hujo, H. Kruse, T. Risthaus : VdW corrections, initial TS optimization,
                                                   DFT functionals, gCP
   Ed Valeev                                     : LibInt (2-el integral package), F12 methods
   Garnet Chan, S. Sharma, R. Olivares           : DMRG
   Ulf Ekstrom                                   : XCFun DFT Library
   Mihaly Kallay                                 : mrcc  (arbitrary order and MRCC methods)
   Andreas Klamt, Michael Diedenhofen            : otool_cosmo (COSMO solvation model)
   Frank Weinhold                                : gennbo (NPA and NBO analysis)
   Christopher J. Cramer and Donald G. Truhlar   : smd solvation model


 Your calculation uses the libint2 library for the computation of 2-el integrals
 For citations please refer to: http://libint.valeyev.net

 This ORCA versions uses:
   CBLAS   interface :  Fast vector & matrix operations
   LAPACKE interface :  Fast linear algebra routines
   SCALAPACK package :  Parallel linear algebra routines


leaving
================================================================================
                                        WARNINGS
                       Please study these warnings very carefully!
================================================================================
Now building the actual basis set

WARNING: Direct SCF is incompatible with Method<>HF and Method<>DFT
  ===> : conventional SCF is chosen

WARNING: The NDO methods need Guess=HUECKEL or Guess=HCORE or Guess=MOREAD
  ===> : Guess is set to Hueckel

WARNING: The NDO methods need %rel::SOCType==1
  ===> : %rel::SOCType is set to 1

WARNING: The NDO methods cannot have frozencore=1
  ===> : %method FrozenCore=0 end


INFO   : the flag for use of LIBINT has been found!

================================================================================
                                       INPUT FILE
================================================================================
NAME = /Users/mattyjones/GoogleDrive/Boise/Code/MorphCT/tests/output_EZ/donor_polymer/chromophores/input_orca/pair/00013-00017.inp
|  1> # ================================================================
|  2> # Orca input file made by Matty Jones
|  3> # ================================================================
|  4> ! ZINDO/S 
|  5> ! NOPOP
|  6> ! NOMOPRINT
|  7> * xyz 0   1
|  8>  C  20.75553  -0.35648  14.61042
|  9>  C  22.08218  -0.15675  14.22570
| 10>  C  23.04191  -0.70742  15.13122
| 11>  C  22.47020  -1.34518  16.23654
| 12>  S  20.83042  -1.19628  16.03808
| 13>  H  22.55492  0.83882  13.79592
| 14>  C  24.63555  -0.58244  14.90315
| 15>  C  25.14154  1.02140  14.64040
| 16>  C  26.76345  1.44692  14.38926
| 17>  H  27.37067  0.46962  14.29975
| 18>  H  27.12451  2.01854  15.32815
| 19>  H  24.57706  1.38608  13.70399
| 20>  H  24.78412  1.62605  15.55781
| 21>  H  25.22150  -0.94072  15.83864
| 22>  H  24.96334  -1.21795  13.99120
| 23>  C  26.97965  2.38246  13.07115
| 24>  C  27.53029  1.69858  11.62764
| 25>  C  28.33639  0.23306  11.78002
| 26>  H  29.11089  0.30951  12.63746
| 27>  H  28.88659  -0.00039  10.78818
| 28>  H  27.57665  -0.60750  12.01091
| 29>  H  26.61551  1.52963  10.94528
| 30>  H  28.24475  2.45251  11.12667
| 31>  H  25.97718  2.90754  12.81668
| 32>  H  27.74763  3.20927  13.34563
| 33>  C  -20.37778  -0.81152  -13.55780
| 34>  C  -21.46135  -1.30297  -14.28735
| 35>  C  -22.61033  -0.45219  -14.27089
| 36>  C  -22.43315  0.71696  -13.52456
| 37>  S  -20.88596  0.63764  -12.93265
| 38>  H  -21.88820  -2.38174  -13.97478
| 39>  C  -23.89918  -0.94854  -15.10511
| 40>  C  -25.48378  -0.61730  -14.67280
| 41>  C  -26.10811  -1.67447  -13.52156
| 42>  H  -25.81251  -2.75240  -13.81576
| 43>  H  -25.61817  -1.41841  -12.50561
| 44>  H  -25.54950  0.45733  -14.27611
| 45>  H  -26.13305  -0.71134  -15.62457
| 46>  H  -23.85222  -2.11757  -15.19299
| 47>  H  -23.79314  -0.53980  -16.19984
| 48>  C  -27.72560  -1.55937  -13.40323
| 49>  C  -28.27685  -0.12643  -12.70476
| 50>  C  -28.61200  1.04240  -13.87284
| 51>  H  -27.88830  0.92612  -14.76776
| 52>  H  -28.48726  2.09478  -13.40851
| 53>  H  -29.70076  0.90369  -14.23992
| 54>  H  -29.23754  -0.34429  -12.11007
| 55>  H  -27.46389  0.28249  -12.00047
| 56>  H  -28.19970  -1.65244  -14.45448
| 57>  H  -28.11684  -2.43086  -12.74780
| 58>  H  19.88388  -0.03835  14.09796
| 59>  H  22.97847  -1.82363  17.03425
| 60>  H  -19.42983  -1.26838  -13.43026
| 61>  H  -23.13978  1.49172  -13.36957
| 62> *
| 63> 
| 64>                          ****END OF INPUT****
================================================================================

                       ****************************
                       * Single Point Calculation *
                       ****************************

---------------------------------
CARTESIAN COORDINATES (ANGSTROEM)
---------------------------------
  C     20.755530   -0.356480   14.610420
  C     22.082180   -0.156750   14.225700
  C     23.041910   -0.707420   15.131220
  C     22.470200   -1.345180   16.236540
  S     20.830420   -1.196280   16.038080
  H     22.554920    0.838820   13.795920
  C     24.635550   -0.582440   14.903150
  C     25.141540    1.021400   14.640400
  C     26.763450    1.446920   14.389260
  H     27.370670    0.469620   14.299750
  H     27.124510    2.018540   15.328150
  H     24.577060    1.386080   13.703990
  H     24.784120    1.626050   15.557810
  H     25.221500   -0.940720   15.838640
  H     24.963340   -1.217950   13.991200
  C     26.979650    2.382460   13.071150
  C     27.530290    1.698580   11.627640
  C     28.336390    0.233060   11.780020
  H     29.110890    0.309510   12.637460
  H     28.886590   -0.000390   10.788180
  H     27.576650   -0.607500   12.010910
  H     26.615510    1.529630   10.945280
  H     28.244750    2.452510   11.126670
  H     25.977180    2.907540   12.816680
  H     27.747630    3.209270   13.345630
  C    -20.377780   -0.811520  -13.557800
  C    -21.461350   -1.302970  -14.287350
  C    -22.610330   -0.452190  -14.270890
  C    -22.433150    0.716960  -13.524560
  S    -20.885960    0.637640  -12.932650
  H    -21.888200   -2.381740  -13.974780
  C    -23.899180   -0.948540  -15.105110
  C    -25.483780   -0.617300  -14.672800
  C    -26.108110   -1.674470  -13.521560
  H    -25.812510   -2.752400  -13.815760
  H    -25.618170   -1.418410  -12.505610
  H    -25.549500    0.457330  -14.276110
  H    -26.133050   -0.711340  -15.624570
  H    -23.852220   -2.117570  -15.192990
  H    -23.793140   -0.539800  -16.199840
  C    -27.725600   -1.559370  -13.403230
  C    -28.276850   -0.126430  -12.704760
  C    -28.612000    1.042400  -13.872840
  H    -27.888300    0.926120  -14.767760
  H    -28.487260    2.094780  -13.408510
  H    -29.700760    0.903690  -14.239920
  H    -29.237540   -0.344290  -12.110070
  H    -27.463890    0.282490  -12.000470
  H    -28.199700   -1.652440  -14.454480
  H    -28.116840   -2.430860  -12.747800
  H     19.883880   -0.038350   14.097960
  H     22.978470   -1.823630   17.034250
  H    -19.429830   -1.268380  -13.430260
  H    -23.139780    1.491720  -13.369570

----------------------------
CARTESIAN COORDINATES (A.U.)
----------------------------
  NO LB      ZA    FRAG    MASS        X           Y           Z
   0 C     4.0000    0    12.011         39.222267464386555         -0.673649572220248         27.609692501565732
   1 C     4.0000    0    12.011         41.729272639953187         -0.296214571492156         26.882677063323548
   2 C     4.0000    0    12.011         43.542899502461431         -1.336830061658572         28.593861872111923
   3 C     4.0000    0    12.011         42.462524174437306         -2.542021800828189         30.682613962457761
   4 S     6.0000    0    32.060         39.363789054555916         -2.260641579487315         30.307578913919748
   5 H     1.0000    0     1.008         42.622621772503116          1.585140075655824         26.070510565486874
   6 C     4.0000    0    12.011         46.554442658523691         -1.100652089441094         28.162872032748503
   7 C     4.0000    0    12.011         47.510625185026505          1.930166273187167         27.666346491060693
   8 C     4.0000    0    12.011         50.575590898894724          2.734282537693337         27.191760669787708
   9 H     1.0000    0     1.008         51.723070401934386          0.887453187012098         27.022611283540417
  10 H     1.0000    0     1.008         51.257895416808331          3.814487790365403         28.966005639665035
  11 H     1.0000    0     1.008         46.443912576950638          2.619311599705568         25.896788041995492
  12 H     1.0000    0     1.008         46.835199270240373          3.072789180062651         29.400000143581387
  13 H     1.0000    0     1.008         47.661727686694846         -1.777703168702400         29.930691933770493
  14 H     1.0000    0     1.008         47.173875987961736         -2.301591944809389         26.439536284919015
  15 C     4.0000    0    12.011         50.984149689048493          4.502196925022025         24.700893755404767
  16 C     4.0000    0    12.011         52.024708487430900          3.209851016555960         21.973055183828102
  17 C     4.0000    0    12.011         53.548016723984816          0.440419572771687         22.261011652115023
  18 H     1.0000    0     1.008         55.011609614706828          0.584889135709967         23.881338428384463
  19 H     1.0000    0     1.008         54.587744042868295         -0.000736993192229         20.386705683446571
  20 H     1.0000    0     1.008         52.112316190999486         -1.148008626357160         22.697330519176102
  21 H     1.0000    0     1.008         50.296024814642415          2.890581786229964         20.683581659085597
  22 H     1.0000    0     1.008         53.374842221072271          4.634572240703209         21.026359082517576
  23 H     1.0000    0     1.008         49.089755931576462          5.494454323421397         24.220015146105826
  24 H     1.0000    0     1.008         52.435421565377339          6.064641389809456         25.219585784643474
  25 C     4.0000    0    12.011        -38.508423417297806         -1.533550552199774        -25.620528978477548
  26 C     4.0000    0    12.011        -40.556073964230855         -2.462256460715373        -26.999178679479794
  27 C     4.0000    0    12.011        -42.727331497583698         -0.854515260497851        -26.968073787315451
  28 C     4.0000    0    12.011        -42.392509821175530          1.354858048976181        -25.557714481786000
  29 S     6.0000    0    32.060        -39.468744444033909          1.204964972033547        -24.439166685856677
  30 H     1.0000    0     1.008        -41.362703564495142         -4.500836322205602        -26.408506981800031
  31 C     4.0000    0    12.011        -45.162905025288104         -1.792480827069664        -28.544521122755238
  32 C     4.0000    0    12.011        -48.157365057099710         -1.166527942469588        -27.727573617799742
  33 C     4.0000    0    12.011        -49.337177774290772         -3.164289719467118        -25.552045303384237
  34 H     1.0000    0     1.008        -48.778574729103646         -5.201282211004854        -26.108002731983870
  35 H     1.0000    0     1.008        -48.411325352237391         -2.680406445615243        -23.632178037626947
  36 H     1.0000    0     1.008        -48.281557858621014          0.864228452826206        -26.977938157734517
  37 H     1.0000    0     1.008        -49.384307544070765         -1.344237788103543        -29.526158260281971
  38 H     1.0000    0     1.008        -45.074163486039154         -4.001627369407625        -28.710590255404238
  39 H     1.0000    0     1.008        -44.962518466047094         -1.020074167090692        -30.613261013342846
  40 C     4.0000    0    12.011        -52.393790898647055         -2.946782241452782        -25.328434009957338
  41 C     4.0000    0    12.011        -53.435502429971145         -0.238918075111664        -24.008516997197361
  42 C     4.0000    0    12.011        -54.068844143754852          1.969850521999513        -26.215868299708099
  43 H     1.0000    0     1.008        -52.701249340636046          1.750113167147150        -27.907022011476904
  44 H     1.0000    0     1.008        -53.833119705809516          3.958560510815560        -25.338411763944443
  45 H     1.0000    0     1.008        -56.126302369322950          1.707726609963296        -26.909548968947909
  46 H     1.0000    0     1.008        -55.250943429567954         -0.650613810647748        -22.884715762615734
  47 H     1.0000    0     1.008        -51.899230672138522          0.533828735571414        -22.677601778337962
  48 H     1.0000    0     1.008        -53.289710058739118         -3.122659052736833        -27.315008608242053
  49 H     1.0000    0     1.008        -53.133127351282404         -4.593659669903814        -24.089850810001330
  50 H     1.0000    0     1.008         37.575087679754098         -0.072470997235880         26.641283446976448
  51 H     1.0000    0     1.008         43.423015276525469         -3.446161269602812         32.190067396748084
  52 H     1.0000    0     1.008        -36.717057528647153         -2.396890833743037        -25.379513307357229
  53 H     1.0000    0     1.008        -43.727846999188294          2.818942268493009        -25.264825828289549

--------------------------------
INTERNAL COORDINATES (ANGSTROEM)
--------------------------------
 C      0   0   0   0.000000     0.000     0.000
 C      1   0   0   1.395673     0.000     0.000
 C      2   1   0   1.429785   114.101     0.000
 C      3   2   1   1.398328   113.693     0.000
 S      1   2   3   1.658037   105.480     0.000
 H      2   1   3   1.182943   126.902   223.306
 C      3   2   1   1.614721   122.903   180.820
 C      7   3   2   1.702165   112.837    52.416
 C      8   7   3   1.695503   122.936   179.315
 H      9   8   7   1.154055   107.595     7.096
 H      9   8   7   1.156991   107.597   250.378
 H      8   7   3   1.152603   106.138   300.700
 H      8   7   3   1.155418   106.175    56.769
 H      7   3   2   1.160536   111.134   170.536
 H      7   3   2   1.158867   110.357   291.327
 C      9   8   7   1.630764   112.987   129.590
 C     16   9   8   1.689561   120.104   259.813
 C     17  16   9   1.679514   115.601   338.725
 H     18  17  16   1.157972   109.305   313.347
 H     18  17  16   1.158001   109.041   193.974
 H     18  17  16   1.156311   109.699    73.851
 H     17  16   9   1.153682   107.829    99.460
 H     17  16   9   1.153184   107.966   217.414
 H     16   9   8   1.159918   108.811    22.246
 H     16   9   8   1.161356   107.762   138.548
 C      1   2   3  49.855841   129.036   203.358
 C     26   1   2   1.395668   159.901   101.416
 C     27  26   1   1.429774   114.102   148.544
 C     28  27  26   1.398325   113.693     0.000
 S     26   1   2   1.658048    91.826   251.206
 H     27  26   1   1.201518   117.128    26.422
 C     28  27  26   1.613512   116.931   179.439
 C     32  28  27   1.675580   124.139   148.090
 C     33  32  28   1.683078   113.773   276.851
 H     34  33  32   1.155797   108.471   315.549
 H     34  33  32   1.156617   107.736    73.127
 H     33  32  28   1.147393   109.179    39.238
 H     33  32  28   1.155968   107.617   157.634
 H     32  28  27   1.173269   108.256    24.928
 H     32  28  27   1.173348   107.640   270.899
 C     34  33  32   1.625892   111.984   194.199
 C     41  34  33   1.686729   114.545   289.721
 C     42  41  34   1.686090   111.531    92.977
 H     43  42  41   1.156782   109.993   327.310
 H     43  42  41   1.157007   109.334   206.990
 H     43  42  41   1.157319   108.884    87.103
 H     42  41  34   1.150671   109.028   213.225
 H     42  41  34   1.150715   108.932   333.186
 H     41  34  33   1.156961   109.624    51.418
 H     41  34  33   1.158513   108.898   169.824
 H      1   2   3   1.059998   127.260   180.000
 H      4   3   2   1.059997   127.206   180.000
 H     26   1   2   1.059998    36.690    57.378
 H     29  28  27   1.060000   127.206   180.001

---------------------------
INTERNAL COORDINATES (A.U.)
---------------------------
 C      0   0   0   0.000000     0.000     0.000
 C      1   0   0   2.637439     0.000     0.000
 C      2   1   0   2.701902   114.101     0.000
 C      3   2   1   2.642458   113.693     0.000
 S      1   2   3   3.133235   105.480     0.000
 H      2   1   3   2.235438   126.902   223.306
 C      3   2   1   3.051381   122.903   180.820
 C      7   3   2   3.216626   112.837    52.416
 C      8   7   3   3.204036   122.936   179.315
 H      9   8   7   2.180848   107.595     7.096
 H      9   8   7   2.186396   107.597   250.378
 H      8   7   3   2.178103   106.138   300.700
 H      8   7   3   2.183424   106.175    56.769
 H      7   3   2   2.193095   111.134   170.536
 H      7   3   2   2.189941   110.357   291.327
 C      9   8   7   3.081698   112.987   129.590
 C     16   9   8   3.192808   120.104   259.813
 C     17  16   9   3.173821   115.601   338.725
 H     18  17  16   2.188249   109.305   313.347
 H     18  17  16   2.188304   109.041   193.974
 H     18  17  16   2.185112   109.699    73.851
 H     17  16   9   2.180143   107.829    99.460
 H     17  16   9   2.179203   107.966   217.414
 H     16   9   8   2.191928   108.811    22.246
 H     16   9   8   2.194644   107.762   138.548
 C      1   2   3  94.213885   129.036   203.358
 C     26   1   2   2.637431   159.901   101.416
 C     27  26   1   2.701881   114.102   148.544
 C     28  27  26   2.642451   113.693     0.000
 S     26   1   2   3.133257    91.826   251.206
 H     27  26   1   2.270540   117.128    26.422
 C     28  27  26   3.049096   116.931   179.439
 C     32  28  27   3.166388   124.139   148.090
 C     33  32  28   3.180556   113.773   276.851
 H     34  33  32   2.184139   108.471   315.549
 H     34  33  32   2.185689   107.736    73.127
 H     33  32  28   2.168259   109.179    39.238
 H     33  32  28   2.184462   107.617   157.634
 H     32  28  27   2.217156   108.256    24.928
 H     32  28  27   2.217307   107.640   270.899
 C     34  33  32   3.072490   111.984   194.199
 C     41  34  33   3.187455   114.545   289.721
 C     42  41  34   3.186249   111.531    92.977
 H     43  42  41   2.186001   109.993   327.310
 H     43  42  41   2.186427   109.334   206.990
 H     43  42  41   2.187015   108.884    87.103
 H     42  41  34   2.174454   109.028   213.225
 H     42  41  34   2.174535   108.932   333.186
 H     41  34  33   2.186340   109.624    51.418
 H     41  34  33   2.189272   108.898   169.824
 H      1   2   3   2.003106   127.260   180.000
 H      4   3   2   2.003104   127.206   180.000
 H     26   1   2   2.003107    36.690    57.378
 H     29  28  27   2.003111   127.206   180.001

----------------------------
SLATER BASIS SET DIM= 120
----------------------------
  0 C     2 shells
 l=0 nsto= 1
    2       1.625000000000        1.000000000000
 l=1 nsto= 1
    2       1.625000000000        1.000000000000
  1 C     2 shells
 l=0 nsto= 1
    2       1.625000000000        1.000000000000
 l=1 nsto= 1
    2       1.625000000000        1.000000000000
  2 C     2 shells
 l=0 nsto= 1
    2       1.625000000000        1.000000000000
 l=1 nsto= 1
    2       1.625000000000        1.000000000000
  3 C     2 shells
 l=0 nsto= 1
    2       1.625000000000        1.000000000000
 l=1 nsto= 1
    2       1.625000000000        1.000000000000
  4 S     2 shells
 l=0 nsto= 1
    3       1.925000000000        1.000000000000
 l=1 nsto= 1
    3       1.925000000000        1.000000000000
  5 H     1 shells
 l=0 nsto= 1
    1       1.200000000000        1.000000000000
  6 C     2 shells
 l=0 nsto= 1
    2       1.625000000000        1.000000000000
 l=1 nsto= 1
    2       1.625000000000        1.000000000000
  7 C     2 shells
 l=0 nsto= 1
    2       1.625000000000        1.000000000000
 l=1 nsto= 1
    2       1.625000000000        1.000000000000
  8 C     2 shells
 l=0 nsto= 1
    2       1.625000000000        1.000000000000
 l=1 nsto= 1
    2       1.625000000000        1.000000000000
  9 H     1 shells
 l=0 nsto= 1
    1       1.200000000000        1.000000000000
 10 H     1 shells
 l=0 nsto= 1
    1       1.200000000000        1.000000000000
 11 H     1 shells
 l=0 nsto= 1
    1       1.200000000000        1.000000000000
 12 H     1 shells
 l=0 nsto= 1
    1       1.200000000000        1.000000000000
 13 H     1 shells
 l=0 nsto= 1
    1       1.200000000000        1.000000000000
 14 H     1 shells
 l=0 nsto= 1
    1       1.200000000000        1.000000000000
 15 C     2 shells
 l=0 nsto= 1
    2       1.625000000000        1.000000000000
 l=1 nsto= 1
    2       1.625000000000        1.000000000000
 16 C     2 shells
 l=0 nsto= 1
    2       1.625000000000        1.000000000000
 l=1 nsto= 1
    2       1.625000000000        1.000000000000
 17 C     2 shells
 l=0 nsto= 1
    2       1.625000000000        1.000000000000
 l=1 nsto= 1
    2       1.625000000000        1.000000000000
 18 H     1 shells
 l=0 nsto= 1
    1       1.200000000000        1.000000000000
 19 H     1 shells
 l=0 nsto= 1
    1       1.200000000000        1.000000000000
 20 H     1 shells
 l=0 nsto= 1
    1       1.200000000000        1.000000000000
 21 H     1 shells
 l=0 nsto= 1
    1       1.200000000000        1.000000000000
 22 H     1 shells
 l=0 nsto= 1
    1       1.200000000000        1.000000000000
 23 H     1 shells
 l=0 nsto= 1
    1       1.200000000000        1.000000000000
 24 H     1 shells
 l=0 nsto= 1
    1       1.200000000000        1.000000000000
 25 C     2 shells
 l=0 nsto= 1
    2       1.625000000000        1.000000000000
 l=1 nsto= 1
    2       1.625000000000        1.000000000000
 26 C     2 shells
 l=0 nsto= 1
    2       1.625000000000        1.000000000000
 l=1 nsto= 1
    2       1.625000000000        1.000000000000
 27 C     2 shells
 l=0 nsto= 1
    2       1.625000000000        1.000000000000
 l=1 nsto= 1
    2       1.625000000000        1.000000000000
 28 C     2 shells
 l=0 nsto= 1
    2       1.625000000000        1.000000000000
 l=1 nsto= 1
    2       1.625000000000        1.000000000000
 29 S     2 shells
 l=0 nsto= 1
    3       1.925000000000        1.000000000000
 l=1 nsto= 1
    3       1.925000000000        1.000000000000
 30 H     1 shells
 l=0 nsto= 1
    1       1.200000000000        1.000000000000
 31 C     2 shells
 l=0 nsto= 1
    2       1.625000000000        1.000000000000
 l=1 nsto= 1
    2       1.625000000000        1.000000000000
 32 C     2 shells
 l=0 nsto= 1
    2       1.625000000000        1.000000000000
 l=1 nsto= 1
    2       1.625000000000        1.000000000000
 33 C     2 shells
 l=0 nsto= 1
    2       1.625000000000        1.000000000000
 l=1 nsto= 1
    2       1.625000000000        1.000000000000
 34 H     1 shells
 l=0 nsto= 1
    1       1.200000000000        1.000000000000
 35 H     1 shells
 l=0 nsto= 1
    1       1.200000000000        1.000000000000
 36 H     1 shells
 l=0 nsto= 1
    1       1.200000000000        1.000000000000
 37 H     1 shells
 l=0 nsto= 1
    1       1.200000000000        1.000000000000
 38 H     1 shells
 l=0 nsto= 1
    1       1.200000000000        1.000000000000
 39 H     1 shells
 l=0 nsto= 1
    1       1.200000000000        1.000000000000
 40 C     2 shells
 l=0 nsto= 1
    2       1.625000000000        1.000000000000
 l=1 nsto= 1
    2       1.625000000000        1.000000000000
 41 C     2 shells
 l=0 nsto= 1
    2       1.625000000000        1.000000000000
 l=1 nsto= 1
    2       1.625000000000        1.000000000000
 42 C     2 shells
 l=0 nsto= 1
    2       1.625000000000        1.000000000000
 l=1 nsto= 1
    2       1.625000000000        1.000000000000
 43 H     1 shells
 l=0 nsto= 1
    1       1.200000000000        1.000000000000
 44 H     1 shells
 l=0 nsto= 1
    1       1.200000000000        1.000000000000
 45 H     1 shells
 l=0 nsto= 1
    1       1.200000000000        1.000000000000
 46 H     1 shells
 l=0 nsto= 1
    1       1.200000000000        1.000000000000
 47 H     1 shells
 l=0 nsto= 1
    1       1.200000000000        1.000000000000
 48 H     1 shells
 l=0 nsto= 1
    1       1.200000000000        1.000000000000
 49 H     1 shells
 l=0 nsto= 1
    1       1.200000000000        1.000000000000
 50 H     1 shells
 l=0 nsto= 1
    1       1.200000000000        1.000000000000
 51 H     1 shells
 l=0 nsto= 1
    1       1.200000000000        1.000000000000
 52 H     1 shells
 l=0 nsto= 1
    1       1.200000000000        1.000000000000
 53 H     1 shells
 l=0 nsto= 1
    1       1.200000000000        1.000000000000
------------------------------------------------------------------------------
                           ORCA NDO INTEGRAL CALCULATION
------------------------------------------------------------------------------

--------------
NDO PARAMETERS
--------------

Gamma integral treatment              ... Mataga-Nishimoto
Nuclear repulsuion treatment          ... Direct (ZA*ZB/RAB)
Interaction factors:
s-s (sigma) =    1.0000
s-p (sigma) =    1.0000
s-d (sigma) =    1.0000
p-p (sigma) =    1.2670  p-p(pi) =    0.5850
p-d (sigma) =    1.0000  p-d(pi) =    1.0000
d-d (sigma) =    1.0000  d-d(pi) =    1.0000 d-d (delta) =    1.0000

fGamma parameter for Mataga-Nishimoto gamma integrals:    1.2000

--------------------------
Parameters for Element H :
--------------------------
 One-electron parameters (in eV)
  U(s)  =   -13.060000 Beta(s) =    12.000000 Neff(s) =     1.000000
 One-center electron repulsion parameters (in eV)
  G(s,s)=    12.850000
--------------------------
Parameters for Element C :
--------------------------
 One-electron parameters (in eV)
  U(s)  =   -50.870766 Beta(s) =    17.000000 Neff(s) =     2.000000
  U(p)  =   -41.599980 Beta(p) =    17.000000 Neff(p) =     2.000000 
 One-center electron repulsion parameters (in eV)
  G(s,s)=    11.110000
  G(s,p)=    11.110000 G(p,p)  =    11.110000
 Slater-Condon parameters (in eV)
 F2(p,p)=     4.5098 G1(s,p)=    6.8977
--------------------------
Parameters for Element S :
--------------------------
 One-electron parameters (in eV)
  U(s)  =   -69.509597 Beta(s) =    15.000000 Neff(s) =     2.000000
  U(p)  =   -60.725746 Beta(p) =    15.000000 Neff(p) =     4.000000 
 One-center electron repulsion parameters (in eV)
  G(s,s)=    10.090000
  G(s,p)=    10.090000 G(p,p)  =    10.090000
 Slater-Condon parameters (in eV)
 F2(p,p)=     4.5377 G1(s,p)=    3.0756

 Number of atoms                    ....   54
 Number of basis functions          ....  120

 Overlap integrals                  .... done
 One electron matrix                .... done
 Nuclear repulsion                  .... done
 Integral list                      .... done
 Electron-electron repulsion        .... done
-------------------------------------------------------------------------------
                                 ORCA SCF
-------------------------------------------------------------------------------

------------
SCF SETTINGS
------------
Hamiltonian:
 ZDO-Hamiltonian        Method          .... INDO


General Settings:
 Integral files         IntName         .... /Users/mattyjones/GoogleDrive/Boise/Code/MorphCT/tests/output_EZ/donor_polymer/chromophores/input_orca/pair/00013-00017
 Hartree-Fock type      HFTyp           .... RHF
 Total Charge           Charge          ....    0
 Multiplicity           Mult            ....    1
 Number of Electrons    NEL             ....  124
 Basis Dimension        Dim             ....  120
 Nuclear Repulsion      ENuc            ....    631.6856869380 Eh

Convergence Acceleration:
 DIIS                   CNVDIIS         .... on
   Start iteration      DIISMaxIt       ....    12
   Startup error        DIISStart       ....  0.200000
   # of expansion vecs  DIISMaxEq       ....     5
   Bias factor          DIISBfac        ....   1.050
   Max. coefficient     DIISMaxC        ....  10.000
 Newton-Raphson         CNVNR           .... off
 SOSCF                  CNVSOSCF        .... on
   Start iteration      SOSCFMaxIt      ....   150
   Startup grad/error   SOSCFStart      ....  0.003300
 Level Shifting         CNVShift        .... on
   Level shift para.    LevelShift      ....    0.2500
   Turn off err/grad.   ShiftErr        ....    0.0010
 Zerner damping         CNVZerner       .... off
 Static damping         CNVDamp         .... on
   Fraction old density DampFac         ....    0.7000
   Max. Damping (<1)    DampMax         ....    0.9800
   Min. Damping (>=0)   DampMin         ....    0.0000
   Turn off err/grad.   DampErr         ....    0.1000
 Fernandez-Rico         CNVRico         .... off

SCF Procedure:
 Maximum # iterations   MaxIter         ....   125
 SCF integral mode      SCFMode         .... Conventional
 Integral Buffer length BufferLength    .... 1048576
 Integral index format  IndFormat       ....     0
 Integral value format  ValFormat       ....     0
 Integral Storage       Thresh          ....  1.000e-08 Eh

Convergence Tolerance:
 Convergence Check Mode ConvCheckMode   .... Total+1el-Energy
 Energy Change          TolE            ....  1.000e-06 Eh
 1-El. energy change                    ....  1.000e-03 Eh
 Orbital Gradient       TolG            ....  5.000e-05
 Orbital Rotation angle TolX            ....  5.000e-05
 DIIS Error             TolErr          ....  1.000e-06


Diagonalization of the overlap matrix:
Smallest eigenvalue                        ... 1.676e-01
Time for diagonalization                   ...    0.003 sec
Threshold for overlap eigenvalues          ... 1.000e-08
Number of eigenvalues below threshold      ... 0
Time for construction of square roots      ...    0.001 sec
Total time needed                          ...    0.004 sec

-------------------------------
INITIAL GUESS: EXTENDED HUECKEL
-------------------------------
EHT matrix was read from disk
EHT matrix was diagonalized
Initial density was built
                      ------------------
                      INITIAL GUESS DONE
                      ------------------

 InCore treatment chosen:
   Memory dedicated               ...    1024 MB
   Memory needed                  ...      0 MB
   Number of tiny    integrals    ...       0
   Number of small   integrals    ...       0
   Number of regular integrals    ...    7392

--------------
SCF ITERATIONS
--------------
ITER       Energy         Delta-E        Max-DP      RMS-DP      [F,P]     Damp
  0    -17.4924881989   0.000000000000 0.04784899  0.00155195  0.1253026 0.7000
  1    -17.5393583424  -0.046870143482 0.04600477  0.00146876  0.0859340 0.7000
                               ***Turning on DIIS***
  2    -17.5738381666  -0.034479824242 0.11856209  0.00377110  0.0523642 0.0000
  3    -17.6642721322  -0.090433965587 0.01963543  0.00078262  0.0238412 0.0000
  4    -17.6460727461   0.018199386056 0.01448341  0.00056038  0.0087958 0.0000
  5    -17.6648490070  -0.018776260845 0.01024452  0.00038406  0.0051612 0.0000
  6    -17.6666441163  -0.001795109278 0.00723579  0.00027941  0.0028291 0.0000
  7    -17.6637554669   0.002888649336 0.00456789  0.00016677  0.0015875 0.0000
                      *** Initiating the SOSCF procedure ***
                           *** Shutting down DIIS ***
                      *** Re-Reading the Fockian *** 
                      *** Removing any level shift *** 
ITER      Energy       Delta-E        Grad      Rot      Max-DP    RMS-DP
  8    -17.66284175   0.0009137127  0.001994  0.001994  0.004506  0.000153
  9    -17.66170177   0.0011399851  0.000148  0.000412  0.000518  0.000015
                 **** Energy Check signals convergence ****
              ***Rediagonalizing the Fockian in SOSCF/NRSCF***

               *****************************************************
               *                     SUCCESS                       *
               *           SCF CONVERGED AFTER  10 CYCLES          *
               *****************************************************


----------------
TOTAL SCF ENERGY
----------------

Total Energy       :          -17.66170259 Eh            -480.59936 eV

Components:
Nuclear Repulsion  :          631.68568694 Eh           17189.04142 eV
Electronic Energy  :         -649.34738953 Eh          -17669.64078 eV

One Electron Energy:        -1208.35451621 Eh          -32880.99802 eV
Two Electron Energy:          559.00712668 Eh           15211.35725 eV


---------------
SCF CONVERGENCE
---------------

  Last Energy change         ...   -8.2507e-07  Tolerance :   1.0000e-06
  Last MAX-Density change    ...    5.4567e-04  Tolerance :   1.0000e-05
  Last RMS-Density change    ...    1.5968e-05  Tolerance :   1.0000e-06
  Last Orbital Gradient      ...    1.0023e-04  Tolerance :   5.0000e-05
  Last Orbital Rotation      ...    5.9139e-04  Tolerance :   5.0000e-05

             **** THE GBW FILE WAS UPDATED (/Users/mattyjones/GoogleDrive/Boise/Code/MorphCT/tests/output_EZ/donor_polymer/chromophores/input_orca/pair/00013-00017.gbw) ****
             **** DENSITY FILE WAS UPDATED (/Users/mattyjones/GoogleDrive/Boise/Code/MorphCT/tests/output_EZ/donor_polymer/chromophores/input_orca/pair/00013-00017.scfp.tmp) ****
             **** ENERGY FILE WAS UPDATED (/Users/mattyjones/GoogleDrive/Boise/Code/MorphCT/tests/output_EZ/donor_polymer/chromophores/input_orca/pair/00013-00017.en.tmp) ****
----------------
ORBITAL ENERGIES
----------------

  NO   OCC          E(Eh)            E(eV) 
   0   2.0000      -1.564786       -42.5800 
   1   2.0000      -1.562124       -42.5076 
   2   2.0000      -1.419196       -38.6183 
   3   2.0000      -1.404515       -38.2188 
   4   2.0000      -1.289092       -35.0780 
   5   2.0000      -1.285862       -34.9901 
   6   2.0000      -1.181154       -32.1408 
   7   2.0000      -1.172048       -31.8930 
   8   2.0000      -1.110329       -30.2136 
   9   2.0000      -1.105977       -30.0952 
  10   2.0000      -1.061723       -28.8910 
  11   2.0000      -1.041767       -28.3479 
  12   2.0000      -0.965724       -26.2787 
  13   2.0000      -0.956712       -26.0335 
  14   2.0000      -0.917006       -24.9530 
  15   2.0000      -0.881587       -23.9892 
  16   2.0000      -0.862837       -23.4790 
  17   2.0000      -0.832953       -22.6658 
  18   2.0000      -0.829845       -22.5812 
  19   2.0000      -0.824244       -22.4288 
  20   2.0000      -0.779836       -21.2204 
  21   2.0000      -0.768567       -20.9138 
  22   2.0000      -0.725664       -19.7463 
  23   2.0000      -0.725102       -19.7310 
  24   2.0000      -0.718066       -19.5396 
  25   2.0000      -0.690711       -18.7952 
  26   2.0000      -0.679544       -18.4913 
  27   2.0000      -0.671334       -18.2679 
  28   2.0000      -0.648112       -17.6360 
  29   2.0000      -0.647140       -17.6096 
  30   2.0000      -0.614002       -16.7078 
  31   2.0000      -0.606050       -16.4915 
  32   2.0000      -0.593771       -16.1573 
  33   2.0000      -0.586726       -15.9656 
  34   2.0000      -0.578510       -15.7421 
  35   2.0000      -0.578234       -15.7345 
  36   2.0000      -0.573012       -15.5924 
  37   2.0000      -0.572091       -15.5674 
  38   2.0000      -0.555091       -15.1048 
  39   2.0000      -0.537365       -14.6224 
  40   2.0000      -0.535455       -14.5705 
  41   2.0000      -0.532862       -14.4999 
  42   2.0000      -0.524600       -14.2751 
  43   2.0000      -0.520193       -14.1552 
  44   2.0000      -0.512450       -13.9445 
  45   2.0000      -0.503733       -13.7073 
  46   2.0000      -0.498118       -13.5545 
  47   2.0000      -0.493222       -13.4213 
  48   2.0000      -0.487455       -13.2643 
  49   2.0000      -0.477812       -13.0019 
  50   2.0000      -0.471301       -12.8248 
  51   2.0000      -0.470567       -12.8048 
  52   2.0000      -0.468389       -12.7455 
  53   2.0000      -0.467429       -12.7194 
  54   2.0000      -0.462600       -12.5880 
  55   2.0000      -0.456002       -12.4084 
  56   2.0000      -0.436823       -11.8865 
  57   2.0000      -0.434605       -11.8262 
  58   2.0000      -0.348952        -9.4955 
  59   2.0000      -0.340537        -9.2665 
  60   2.0000      -0.304436        -8.2841 
  61   2.0000      -0.304161        -8.2766 
  62   0.0000      -0.002831        -0.0770 
  63   0.0000       0.002748         0.0748 
  64   0.0000       0.054464         1.4820 
  65   0.0000       0.058444         1.5903 
  66   0.0000       0.076890         2.0923 
  67   0.0000       0.079438         2.1616 
  68   0.0000       0.092333         2.5125 
  69   0.0000       0.093214         2.5365 
  70   0.0000       0.103761         2.8235 
  71   0.0000       0.104569         2.8455 
  72   0.0000       0.107977         2.9382 
  73   0.0000       0.111137         3.0242 
  74   0.0000       0.125300         3.4096 
  75   0.0000       0.126809         3.4507 
  76   0.0000       0.143360         3.9010 
  77   0.0000       0.144650         3.9361 
  78   0.0000       0.158362         4.3093 
  79   0.0000       0.159445         4.3387 
  80   0.0000       0.166368         4.5271 
  81   0.0000       0.167871         4.5680 
  82   0.0000       0.179407         4.8819 
  83   0.0000       0.186570         5.0768 
  84   0.0000       0.199688         5.4338 
  85   0.0000       0.202509         5.5105 
  86   0.0000       0.232518         6.3271 
  87   0.0000       0.233187         6.3454 
  88   0.0000       0.236658         6.4398 
  89   0.0000       0.236896         6.4463 
  90   0.0000       0.237555         6.4642 
  91   0.0000       0.238174         6.4810 
  92   0.0000       0.239301         6.5117 
  93   0.0000       0.239584         6.5194 
  94   0.0000       0.241096         6.5606 
  95   0.0000       0.241726         6.5777 
  96   0.0000       0.243059         6.6140 
  97   0.0000       0.243605         6.6288 
  98   0.0000       0.245180         6.6717 
  99   0.0000       0.247238         6.7277 
 100   0.0000       0.250723         6.8225 
 101   0.0000       0.257254         7.0002 
 102   0.0000       0.262551         7.1444 
 103   0.0000       0.263311         7.1650 
 104   0.0000       0.265596         7.2272 
 105   0.0000       0.265782         7.2323 
 106   0.0000       0.281931         7.6717 
 107   0.0000       0.285591         7.7713 
 108   0.0000       0.303796         8.2667 
 109   0.0000       0.306926         8.3519 
 110   0.0000       0.308896         8.4055 
 111   0.0000       0.309387         8.4189 
 112   0.0000       0.327575         8.9138 
 113   0.0000       0.336359         9.1528 
 114   0.0000       0.344739         9.3808 
 115   0.0000       0.352091         9.5809 
 116   0.0000       0.411919        11.2089 
 117   0.0000       0.417762        11.3679 
 118   0.0000       0.430783        11.7222 
 119   0.0000       0.431972        11.7546 
-------
TIMINGS
-------

Total SCF time: 0 days 0 hours 0 min 0 sec 

Total time                  ....       0.114 sec
Sum of individual times     ....       0.094 sec  ( 81.8%)

Fock matrix formation       ....       0.041 sec  ( 36.1%)
Diagonalization             ....       0.027 sec  ( 23.5%)
Density matrix formation    ....       0.005 sec  (  4.0%)
Population analysis         ....       0.000 sec  (  0.0%)
Initial guess               ....       0.003 sec  (  2.6%)
Orbital Transformation      ....       0.000 sec  (  0.0%)
Orbital Orthonormalization  ....       0.000 sec  (  0.0%)
DIIS solution               ....       0.015 sec  ( 13.4%)
SOSCF solution              ....       0.003 sec  (  2.3%)

-------------------------   --------------------
FINAL SINGLE POINT ENERGY       -17.661702594115
-------------------------   --------------------


                            ***************************************
                            *     ORCA property calculations      *
                            ***************************************

                                    ---------------------
                                    Active property flags
                                    ---------------------
   (+) Dipole Moment


------------------------------------------------------------------------------
                       ORCA ELECTRIC PROPERTIES CALCULATION
------------------------------------------------------------------------------

Dipole Moment Calculation                       ... on
Quadrupole Moment Calculation                   ... off
Polarizability Calculation                      ... off
GBWName                                         ... /Users/mattyjones/GoogleDrive/Boise/Code/MorphCT/tests/output_EZ/donor_polymer/chromophores/input_orca/pair/00013-00017.gbw
Electron density file                           ... /Users/mattyjones/GoogleDrive/Boise/Code/MorphCT/tests/output_EZ/donor_polymer/chromophores/input_orca/pair/00013-00017.scfp.tmp

-------------
DIPOLE MOMENT
-------------
                                X             Y             Z
Electronic contribution:     -0.34005     -19.83776      76.19394
Nuclear contribution   :     -0.81432      10.97698     -41.16236
                        -----------------------------------------
Total Dipole Moment    :     -1.15438      -8.86078      35.03157
                        -----------------------------------------
Magnitude (a.u.)       :     36.15324
Magnitude (Debye)      :     91.89424


Timings for individual modules:

Sum of individual times         ...        0.206 sec (=   0.003 min)
STO integral calculation        ...        0.051 sec (=   0.001 min)  24.5 %
SCF iterations                  ...        0.156 sec (=   0.003 min)  75.5 %
                             ****ORCA TERMINATED NORMALLY****
TOTAL RUN TIME: 0 days 0 hours 0 minutes 0 seconds 528 msec

