
                                 *****************
                                 * O   R   C   A *
                                 *****************

           --- An Ab Initio, DFT and Semiempirical electronic structure package ---

                  #######################################################
                  #                        -***-                        #
                  #  Department of molecular theory and spectroscopy    #
                  #              Directorship: Frank Neese              #
                  # Max Planck Institute for Chemical Energy Conversion #
                  #                  D-45470 Muelheim/Ruhr              #
                  #                       Germany                       #
                  #                                                     #
                  #                  All rights reserved                #
                  #                        -***-                        #
                  #######################################################


                         Program Version 3.0.3 - RELEASE   -


 With contributions from (in alphabetic order):
   Ute Becker             : Parallelization
   Dmytro Bykov           : SCF Hessian
   Dmitry Ganyushin       : Spin-Orbit,Spin-Spin,Magnetic field MRCI
   Andreas Hansen         : Spin unrestricted coupled pair/coupled cluster methods
   Dimitrios Liakos       : Extrapolation schemes; parallel MDCI
   Robert Izsak           : Overlap fitted RIJCOSX, COSX-SCS-MP3
   Christian Kollmar      : KDIIS, OOCD, Brueckner-CCSD(T), CCSD density
   Simone Kossmann        : Meta GGA functionals, TD-DFT gradient, OOMP2, MP2 Hessian
   Taras Petrenko         : DFT Hessian,TD-DFT gradient, ASA and ECA modules, normal mode analysis, Resonance Raman, ABS, FL, XAS/XES, NRVS
   Christoph Reimann      : Effective Core Potentials
   Michael Roemelt        : Restricted open shell CIS
   Christoph Riplinger    : Improved optimizer, TS searches, QM/MM, DLPNO-CCSD
   Barbara Sandhoefer     : DKH picture change effects
   Igor Schapiro          : Molecular dynamics
   Kantharuban Sivalingam : CASSCF convergence, NEVPT2
   Boris Wezisla          : Elementary symmetry handling
   Frank Wennmohs         : Technical directorship


 We gratefully acknowledge several colleagues who have allowed us to
 interface, adapt or use parts of their codes:
   Stefan Grimme, W. Hujo, H. Kruse, T. Risthaus : VdW corrections, initial TS optimization,
                                                   DFT functionals, gCP
   Ed Valeev                                     : LibInt (2-el integral package), F12 methods
   Garnet Chan, S. Sharma, R. Olivares           : DMRG
   Ulf Ekstrom                                   : XCFun DFT Library
   Mihaly Kallay                                 : mrcc  (arbitrary order and MRCC methods)
   Andreas Klamt, Michael Diedenhofen            : otool_cosmo (COSMO solvation model)
   Frank Weinhold                                : gennbo (NPA and NBO analysis)
   Christopher J. Cramer and Donald G. Truhlar   : smd solvation model


 Your calculation uses the libint2 library for the computation of 2-el integrals
 For citations please refer to: http://libint.valeyev.net

 This ORCA versions uses:
   CBLAS   interface :  Fast vector & matrix operations
   LAPACKE interface :  Fast linear algebra routines
   SCALAPACK package :  Parallel linear algebra routines


leaving
================================================================================
                                        WARNINGS
                       Please study these warnings very carefully!
================================================================================
Now building the actual basis set

WARNING: Direct SCF is incompatible with Method<>HF and Method<>DFT
  ===> : conventional SCF is chosen

WARNING: The NDO methods need Guess=HUECKEL or Guess=HCORE or Guess=MOREAD
  ===> : Guess is set to Hueckel

WARNING: The NDO methods need %rel::SOCType==1
  ===> : %rel::SOCType is set to 1

WARNING: The NDO methods cannot have frozencore=1
  ===> : %method FrozenCore=0 end


INFO   : the flag for use of LIBINT has been found!

================================================================================
                                       INPUT FILE
================================================================================
NAME = /Users/mattyjones/GoogleDrive/Boise/Code/MorphCT/tests/output_EZ/donor_polymer/chromophores/input_orca/pair/00015-00022.inp
|  1> # ================================================================
|  2> # Orca input file made by Matty Jones
|  3> # ================================================================
|  4> ! ZINDO/S 
|  5> ! NOPOP
|  6> ! NOMOPRINT
|  7> * xyz 0   1
|  8>  C  5.58629  -9.02573  33.12468
|  9>  C  5.68703  -10.15646  33.93659
| 10>  C  5.84008  -9.86450  35.32785
| 11>  C  5.86029  -8.49633  35.61598
| 12>  S  5.69013  -7.73063  34.15475
| 13>  H  6.08849  -11.13113  33.47483
| 14>  C  5.91885  -11.22885  36.20696
| 15>  C  4.58290  -12.21068  35.60518
| 16>  C  3.82995  -13.74968  35.75513
| 17>  H  2.69351  -13.56491  35.83645
| 18>  H  4.21465  -14.22816  36.72982
| 19>  H  4.81499  -12.27714  34.47745
| 20>  H  3.69392  -11.48720  35.77545
| 21>  H  5.74897  -11.02653  37.32729
| 22>  H  6.90570  -11.79686  36.03138
| 23>  C  4.12639  -14.74645  34.49095
| 24>  C  3.06707  -16.06082  34.32980
| 25>  C  3.50952  -17.45471  35.15230
| 26>  H  4.57805  -17.76610  34.83596
| 27>  H  2.76532  -18.30333  34.89408
| 28>  H  3.48336  -17.24920  36.29090
| 29>  H  2.99876  -16.31961  33.20705
| 30>  H  2.02864  -15.73247  34.70705
| 31>  H  5.19760  -15.17074  34.58233
| 32>  H  4.04944  -14.14877  33.50244
| 33>  C  -7.15473  9.60533  -36.64464
| 34>  C  -6.30909  10.58569  -36.12339
| 35>  C  -6.96296  11.52556  -35.26705
| 36>  C  -8.33180  11.28618  -35.11132
| 37>  S  -8.65650  9.94312  -36.02845
| 38>  H  -5.18808  10.63344  -36.33749
| 39>  C  -6.16722  12.73187  -34.56496
| 40>  C  -5.10361  13.60315  -35.54808
| 41>  C  -4.42178  14.90964  -34.72018
| 42>  H  -5.28207  15.42486  -34.13901
| 43>  H  -4.04172  15.64830  -35.52871
| 44>  H  -4.25914  12.90284  -35.89331
| 45>  H  -5.68435  14.00156  -36.45721
| 46>  H  -6.85623  13.54789  -34.13952
| 47>  H  -5.53427  12.30366  -33.67997
| 48>  C  -3.20908  14.59409  -33.68491
| 49>  C  -1.66190  14.48215  -34.34575
| 50>  C  -1.20838  12.90060  -34.69873
| 51>  H  -0.16773  12.69449  -34.23452
| 52>  H  -1.15588  12.76251  -35.84625
| 53>  H  -1.97950  12.16007  -34.25587
| 54>  H  -1.63280  15.09600  -35.32059
| 55>  H  -0.91053  14.92157  -33.59107
| 56>  H  -3.43048  13.60304  -33.12949
| 57>  H  -3.17080  15.44509  -32.89669
| 58>  H  5.46828  -9.00029  32.07158
| 59>  H  5.96289  -8.04342  36.56884
| 60>  H  -6.89224  8.81209  -37.29691
| 61>  H  -9.01821  11.84595  -34.52900
| 62> *
| 63> 
| 64>                          ****END OF INPUT****
================================================================================

                       ****************************
                       * Single Point Calculation *
                       ****************************

---------------------------------
CARTESIAN COORDINATES (ANGSTROEM)
---------------------------------
  C      5.586290   -9.025730   33.124680
  C      5.687030  -10.156460   33.936590
  C      5.840080   -9.864500   35.327850
  C      5.860290   -8.496330   35.615980
  S      5.690130   -7.730630   34.154750
  H      6.088490  -11.131130   33.474830
  C      5.918850  -11.228850   36.206960
  C      4.582900  -12.210680   35.605180
  C      3.829950  -13.749680   35.755130
  H      2.693510  -13.564910   35.836450
  H      4.214650  -14.228160   36.729820
  H      4.814990  -12.277140   34.477450
  H      3.693920  -11.487200   35.775450
  H      5.748970  -11.026530   37.327290
  H      6.905700  -11.796860   36.031380
  C      4.126390  -14.746450   34.490950
  C      3.067070  -16.060820   34.329800
  C      3.509520  -17.454710   35.152300
  H      4.578050  -17.766100   34.835960
  H      2.765320  -18.303330   34.894080
  H      3.483360  -17.249200   36.290900
  H      2.998760  -16.319610   33.207050
  H      2.028640  -15.732470   34.707050
  H      5.197600  -15.170740   34.582330
  H      4.049440  -14.148770   33.502440
  C     -7.154730    9.605330  -36.644640
  C     -6.309090   10.585690  -36.123390
  C     -6.962960   11.525560  -35.267050
  C     -8.331800   11.286180  -35.111320
  S     -8.656500    9.943120  -36.028450
  H     -5.188080   10.633440  -36.337490
  C     -6.167220   12.731870  -34.564960
  C     -5.103610   13.603150  -35.548080
  C     -4.421780   14.909640  -34.720180
  H     -5.282070   15.424860  -34.139010
  H     -4.041720   15.648300  -35.528710
  H     -4.259140   12.902840  -35.893310
  H     -5.684350   14.001560  -36.457210
  H     -6.856230   13.547890  -34.139520
  H     -5.534270   12.303660  -33.679970
  C     -3.209080   14.594090  -33.684910
  C     -1.661900   14.482150  -34.345750
  C     -1.208380   12.900600  -34.698730
  H     -0.167730   12.694490  -34.234520
  H     -1.155880   12.762510  -35.846250
  H     -1.979500   12.160070  -34.255870
  H     -1.632800   15.096000  -35.320590
  H     -0.910530   14.921570  -33.591070
  H     -3.430480   13.603040  -33.129490
  H     -3.170800   15.445090  -32.896690
  H      5.468280   -9.000290   32.071580
  H      5.962890   -8.043420   36.568840
  H     -6.892240    8.812090  -37.296910
  H     -9.018210   11.845950  -34.529000

----------------------------
CARTESIAN COORDINATES (A.U.)
----------------------------
  NO LB      ZA    FRAG    MASS        X           Y           Z
   0 C     4.0000    0    12.011         10.556558204662949        -17.056157858717057         62.596573473778605
   1 C     4.0000    0    12.011         10.746929215394175        -19.192927890125834         64.130861019170609
   2 C     4.0000    0    12.011         11.036151800190824        -18.641203448066186         66.759961400249892
   3 C     4.0000    0    12.011         11.074343165357371        -16.055736843419147         67.304448191216622
   4 S     6.0000    0    32.060         10.752787366409331        -14.608773542675646         64.543123672546869
   5 H     1.0000    0     1.008         11.505578669118202        -21.034787261074865         63.258261079571128
   6 C     4.0000    0    12.011         11.185005527759801        -21.219451298881644         68.421238541841404
   7 C     4.0000    0    12.011          8.660425899147706        -23.074841108949549         67.284039148970265
   8 C     4.0000    0    12.011          7.237556606611698        -25.983129629054353         67.567403582751766
   9 H     1.0000    0     1.008          5.089996238978230        -25.633964931289725         67.721076111962233
  10 H     1.0000    0     1.008          7.964534250331203        -26.887325789612998         69.409300748223458
  11 H     1.0000    0     1.008          9.099012437569487        -23.200432307809955         65.152938295963253
  12 H     1.0000    0     1.008          6.980497160614390        -21.707662045580200         67.605802817793048
  13 H     1.0000    0     1.008         10.863978852129257        -20.837121907466699         70.538355421457396
  14 H     1.0000    0     1.008         13.049881763019988        -22.292834640210259         68.089440427247510
  15 C     4.0000    0    12.011          7.797747021751313        -27.866751947563042         65.178449598771195
  16 C     4.0000    0    12.011          5.795922333565854        -30.350551286205118         64.873920232289777
  17 C     4.0000    0    12.011          6.632031661519312        -32.984621647016610         66.428219977440008
  18 H     1.0000    0     1.008          8.651260727398187        -33.573063467858354         65.830424012235369
  19 H     1.0000    0     1.008          5.225697472655115        -34.588281038784864         65.940254895138878
  20 H     1.0000    0     1.008          6.582596425855931        -32.596264029234447         68.579862153522754
  21 H     1.0000    0     1.008          5.666835141357693        -30.839593512402601         62.752230215429705
  22 H     1.0000    0     1.008          3.833574024318009        -29.730059710132071         65.586819416311585
  23 H     1.0000    0     1.008          9.822040553669099        -28.668543848924489         65.351132772888917
  24 H     1.0000    0     1.008          7.652332595746072        -26.737300431840989         63.310436418128695
  25 C     4.0000    0    12.011        -13.520480262150397         18.151443125937817        -69.248333876136059
  26 C     4.0000    0    12.011        -11.922452254261231         20.004055038588852        -68.263314128829606
  27 C     4.0000    0    12.011        -13.158087481448318         21.780151940077424        -66.645066051307481
  28 C     4.0000    0    12.011        -15.744820202605084         21.327789298139351        -66.350779000471917
  29 S     6.0000    0    32.060        -16.358414278289313         18.789773716715075        -68.083903529675112
  30 H     1.0000    0     1.008         -9.804050360874168         20.094289461483594        -68.667904494102146
  31 C     4.0000    0    12.011        -11.654356807641822         24.059747472687967        -65.318308229942701
  32 C     4.0000    0    12.011         -9.644425194341839         25.706228058650872        -67.176135786723364
  33 C     4.0000    0    12.011         -8.355953224450312         28.175136355357651        -65.611631520449961
  34 H     1.0000    0     1.008         -9.981665720201425         29.148761054076559        -64.513379383198952
  35 H     1.0000    0     1.008         -7.637743909992201         29.571001461439923        -67.139531791509313
  36 H     1.0000    0     1.008         -8.048608166029361         24.382833949804482        -67.828525939936995
  37 H     1.0000    0     1.008        -10.741864749355267         26.459113847666440        -68.894142506855204
  38 H     1.0000    0     1.008        -12.956397011174904         25.601801792490388        -64.514343143527242
  39 H     1.0000    0     1.008        -10.458254651176366         23.250547844881549        -63.645919498683732
  40 C     4.0000    0    12.011         -6.064282341844010         27.578833273798800        -63.655254745785314
  41 C     4.0000    0    12.011         -3.140535861963728         27.367297330367656        -64.904061364125837
  42 C     4.0000    0    12.011         -2.283507265707762         24.378600963264500        -65.571096894877343
  43 H     1.0000    0     1.008         -0.316963764442612         23.989109509801992        -64.693867126249771
  44 H     1.0000    0     1.008         -2.184296643676896         24.117648681431316        -67.739595428074665
  45 H     1.0000    0     1.008         -3.740712882097118         22.979202069311793        -64.734212779208988
  46 H     1.0000    0     1.008         -3.085544831466620         28.527305717675215        -66.746241988517625
  47 H     1.0000    0     1.008         -1.720652336719317         28.197680788135330        -63.477922845378146
  48 H     1.0000    0     1.008         -6.482667707894175         25.706020188776144        -62.605663056482761
  49 H     1.0000    0     1.008         -5.991943625437504         29.186990213765785        -62.165734812505896
  50 H     1.0000    0     1.008         10.333551623598902        -17.008083225870102         60.606502882146131
  51 H     1.0000    0     1.008         11.268229066697693        -15.199860980104873         69.105092635184832
  52 H     1.0000    0     1.008        -13.024446049257408         16.652436767466121        -70.480945541508859
  53 H     1.0000    0     1.008        -17.041947118189970         22.385601296124452        -65.250353678166903

--------------------------------
INTERNAL COORDINATES (ANGSTROEM)
--------------------------------
 C      0   0   0   0.000000     0.000     0.000
 C      1   0   0   1.395671     0.000     0.000
 C      2   1   0   1.429779   114.101     0.000
 C      3   2   1   1.398326   113.694     0.000
 S      1   2   3   1.658044   105.480     0.000
 H      2   1   3   1.150815   118.550   205.914
 C      3   2   1   1.624958   111.111   178.815
 C      7   3   2   1.763772   104.246   312.889
 C      8   7   3   1.719866   143.128   176.370
 H      9   8   7   1.154231   107.094   133.870
 H      9   8   7   1.151937   107.413    16.191
 H      8   7   3   1.153281   102.315    56.449
 H      8   7   3   1.158750   100.568   303.584
 H      7   3   2   1.151057   111.828   195.806
 H      7   3   2   1.152101   111.902    70.310
 C      9   8   7   1.636942   113.470   254.543
 C     16   9   8   1.695788   115.609   198.012
 C     17  16   9   1.677855   115.632   270.841
 H     18  17  16   1.157061   109.455   304.901
 H     18  17  16   1.157872   109.273   184.882
 H     18  17  16   1.157294   109.196    65.044
 H     17  16   9   1.154212   107.649   150.241
 H     17  16   9   1.152592   108.113    32.385
 H     16   9   8   1.155795   109.288    76.513
 H     16   9   8   1.157711   109.452   317.722
 C      1   2   3  73.329448   140.523   185.840
 C     26   1   2   1.395677    73.611   210.439
 C     27  26   1   1.429762   114.101   283.751
 C     28  27  26   1.398312   113.694     0.000
 S     26   1   2   1.658043    81.694   101.530
 H     27  26   1   1.142271   123.641   102.638
 C     28  27  26   1.606648   121.924   179.964
 C     32  28  27   1.690243   116.393    45.557
 C     33  32  28   1.690333   111.553   175.745
 H     34  33  32   1.159012   106.845   315.604
 H     34  33  32   1.159217   106.448   200.331
 H     33  32  28   1.150108   108.830   295.737
 H     33  32  28   1.150003   108.701    55.713
 H     32  28  27   1.149618   113.442   164.949
 H     32  28  27   1.169272   108.898   284.883
 C     34  33  32   1.625422   117.571    78.023
 C     41  34  33   1.686122   116.607    84.175
 C     42  41  34   1.682729   113.074   264.810
 H     43  42  41   1.157983   108.990   230.632
 H     43  42  41   1.156991   109.418   110.791
 H     43  42  41   1.157210   109.973   350.508
 H     42  41  34   1.152377   108.624    25.239
 H     42  41  34   1.152037   108.445   144.220
 H     41  34  33   1.157450   109.217   321.632
 H     41  34  33   1.160585   108.351   204.275
 H      1   2   3   1.059997   127.260   180.000
 H      4   3   2   1.059998   127.206   180.000
 H     26   1   2   1.059994   110.629   334.744
 H     29  28  27   1.059999   127.206   180.000

---------------------------
INTERNAL COORDINATES (A.U.)
---------------------------
 C      0   0   0   0.000000     0.000     0.000
 C      1   0   0   2.637435     0.000     0.000
 C      2   1   0   2.701892   114.101     0.000
 C      3   2   1   2.642454   113.694     0.000
 S      1   2   3   3.133250   105.480     0.000
 H      2   1   3   2.174724   118.550   205.914
 C      3   2   1   3.070726   111.111   178.815
 C      7   3   2   3.333046   104.246   312.889
 C      8   7   3   3.250076   143.128   176.370
 H      9   8   7   2.181180   107.094   133.870
 H      9   8   7   2.176845   107.413    16.191
 H      8   7   3   2.179386   102.315    56.449
 H      8   7   3   2.189719   100.568   303.584
 H      7   3   2   2.175182   111.828   195.806
 H      7   3   2   2.177155   111.902    70.310
 C      9   8   7   3.093372   113.470   254.543
 C     16   9   8   3.204575   115.609   198.012
 C     17  16   9   3.170687   115.632   270.841
 H     18  17  16   2.186529   109.455   304.901
 H     18  17  16   2.188061   109.273   184.882
 H     18  17  16   2.186968   109.196    65.044
 H     17  16   9   2.181145   107.649   150.241
 H     17  16   9   2.178083   108.113    32.385
 H     16   9   8   2.184137   109.288    76.513
 H     16   9   8   2.187757   109.452   317.722
 C      1   2   3 138.572575   140.523   185.840
 C     26   1   2   2.637447    73.611   210.439
 C     27  26   1   2.701859   114.101   283.751
 C     28  27  26   2.642427   113.694     0.000
 S     26   1   2   3.133246    81.694   101.530
 H     27  26   1   2.158579   123.641   102.638
 C     28  27  26   3.036124   121.924   179.964
 C     32  28  27   3.194096   116.393    45.557
 C     33  32  28   3.194267   111.553   175.745
 H     34  33  32   2.190215   106.845   315.604
 H     34  33  32   2.190603   106.448   200.331
 H     33  32  28   2.173388   108.830   295.737
 H     33  32  28   2.173191   108.701    55.713
 H     32  28  27   2.172464   113.442   164.949
 H     32  28  27   2.209604   108.898   284.883
 C     34  33  32   3.071603   117.571    78.023
 C     41  34  33   3.186308   116.607    84.175
 C     42  41  34   3.179896   113.074   264.810
 H     43  42  41   2.188271   108.990   230.632
 H     43  42  41   2.186395   109.418   110.791
 H     43  42  41   2.186811   109.973   350.508
 H     42  41  34   2.177676   108.624    25.239
 H     42  41  34   2.177034   108.445   144.220
 H     41  34  33   2.187263   109.217   321.632
 H     41  34  33   2.193187   108.351   204.275
 H      1   2   3   2.003104   127.260   180.000
 H      4   3   2   2.003106   127.206   180.000
 H     26   1   2   2.003098   110.629   334.744
 H     29  28  27   2.003108   127.206   180.000

----------------------------
SLATER BASIS SET DIM= 120
----------------------------
  0 C     2 shells
 l=0 nsto= 1
    2       1.625000000000        1.000000000000
 l=1 nsto= 1
    2       1.625000000000        1.000000000000
  1 C     2 shells
 l=0 nsto= 1
    2       1.625000000000        1.000000000000
 l=1 nsto= 1
    2       1.625000000000        1.000000000000
  2 C     2 shells
 l=0 nsto= 1
    2       1.625000000000        1.000000000000
 l=1 nsto= 1
    2       1.625000000000        1.000000000000
  3 C     2 shells
 l=0 nsto= 1
    2       1.625000000000        1.000000000000
 l=1 nsto= 1
    2       1.625000000000        1.000000000000
  4 S     2 shells
 l=0 nsto= 1
    3       1.925000000000        1.000000000000
 l=1 nsto= 1
    3       1.925000000000        1.000000000000
  5 H     1 shells
 l=0 nsto= 1
    1       1.200000000000        1.000000000000
  6 C     2 shells
 l=0 nsto= 1
    2       1.625000000000        1.000000000000
 l=1 nsto= 1
    2       1.625000000000        1.000000000000
  7 C     2 shells
 l=0 nsto= 1
    2       1.625000000000        1.000000000000
 l=1 nsto= 1
    2       1.625000000000        1.000000000000
  8 C     2 shells
 l=0 nsto= 1
    2       1.625000000000        1.000000000000
 l=1 nsto= 1
    2       1.625000000000        1.000000000000
  9 H     1 shells
 l=0 nsto= 1
    1       1.200000000000        1.000000000000
 10 H     1 shells
 l=0 nsto= 1
    1       1.200000000000        1.000000000000
 11 H     1 shells
 l=0 nsto= 1
    1       1.200000000000        1.000000000000
 12 H     1 shells
 l=0 nsto= 1
    1       1.200000000000        1.000000000000
 13 H     1 shells
 l=0 nsto= 1
    1       1.200000000000        1.000000000000
 14 H     1 shells
 l=0 nsto= 1
    1       1.200000000000        1.000000000000
 15 C     2 shells
 l=0 nsto= 1
    2       1.625000000000        1.000000000000
 l=1 nsto= 1
    2       1.625000000000        1.000000000000
 16 C     2 shells
 l=0 nsto= 1
    2       1.625000000000        1.000000000000
 l=1 nsto= 1
    2       1.625000000000        1.000000000000
 17 C     2 shells
 l=0 nsto= 1
    2       1.625000000000        1.000000000000
 l=1 nsto= 1
    2       1.625000000000        1.000000000000
 18 H     1 shells
 l=0 nsto= 1
    1       1.200000000000        1.000000000000
 19 H     1 shells
 l=0 nsto= 1
    1       1.200000000000        1.000000000000
 20 H     1 shells
 l=0 nsto= 1
    1       1.200000000000        1.000000000000
 21 H     1 shells
 l=0 nsto= 1
    1       1.200000000000        1.000000000000
 22 H     1 shells
 l=0 nsto= 1
    1       1.200000000000        1.000000000000
 23 H     1 shells
 l=0 nsto= 1
    1       1.200000000000        1.000000000000
 24 H     1 shells
 l=0 nsto= 1
    1       1.200000000000        1.000000000000
 25 C     2 shells
 l=0 nsto= 1
    2       1.625000000000        1.000000000000
 l=1 nsto= 1
    2       1.625000000000        1.000000000000
 26 C     2 shells
 l=0 nsto= 1
    2       1.625000000000        1.000000000000
 l=1 nsto= 1
    2       1.625000000000        1.000000000000
 27 C     2 shells
 l=0 nsto= 1
    2       1.625000000000        1.000000000000
 l=1 nsto= 1
    2       1.625000000000        1.000000000000
 28 C     2 shells
 l=0 nsto= 1
    2       1.625000000000        1.000000000000
 l=1 nsto= 1
    2       1.625000000000        1.000000000000
 29 S     2 shells
 l=0 nsto= 1
    3       1.925000000000        1.000000000000
 l=1 nsto= 1
    3       1.925000000000        1.000000000000
 30 H     1 shells
 l=0 nsto= 1
    1       1.200000000000        1.000000000000
 31 C     2 shells
 l=0 nsto= 1
    2       1.625000000000        1.000000000000
 l=1 nsto= 1
    2       1.625000000000        1.000000000000
 32 C     2 shells
 l=0 nsto= 1
    2       1.625000000000        1.000000000000
 l=1 nsto= 1
    2       1.625000000000        1.000000000000
 33 C     2 shells
 l=0 nsto= 1
    2       1.625000000000        1.000000000000
 l=1 nsto= 1
    2       1.625000000000        1.000000000000
 34 H     1 shells
 l=0 nsto= 1
    1       1.200000000000        1.000000000000
 35 H     1 shells
 l=0 nsto= 1
    1       1.200000000000        1.000000000000
 36 H     1 shells
 l=0 nsto= 1
    1       1.200000000000        1.000000000000
 37 H     1 shells
 l=0 nsto= 1
    1       1.200000000000        1.000000000000
 38 H     1 shells
 l=0 nsto= 1
    1       1.200000000000        1.000000000000
 39 H     1 shells
 l=0 nsto= 1
    1       1.200000000000        1.000000000000
 40 C     2 shells
 l=0 nsto= 1
    2       1.625000000000        1.000000000000
 l=1 nsto= 1
    2       1.625000000000        1.000000000000
 41 C     2 shells
 l=0 nsto= 1
    2       1.625000000000        1.000000000000
 l=1 nsto= 1
    2       1.625000000000        1.000000000000
 42 C     2 shells
 l=0 nsto= 1
    2       1.625000000000        1.000000000000
 l=1 nsto= 1
    2       1.625000000000        1.000000000000
 43 H     1 shells
 l=0 nsto= 1
    1       1.200000000000        1.000000000000
 44 H     1 shells
 l=0 nsto= 1
    1       1.200000000000        1.000000000000
 45 H     1 shells
 l=0 nsto= 1
    1       1.200000000000        1.000000000000
 46 H     1 shells
 l=0 nsto= 1
    1       1.200000000000        1.000000000000
 47 H     1 shells
 l=0 nsto= 1
    1       1.200000000000        1.000000000000
 48 H     1 shells
 l=0 nsto= 1
    1       1.200000000000        1.000000000000
 49 H     1 shells
 l=0 nsto= 1
    1       1.200000000000        1.000000000000
 50 H     1 shells
 l=0 nsto= 1
    1       1.200000000000        1.000000000000
 51 H     1 shells
 l=0 nsto= 1
    1       1.200000000000        1.000000000000
 52 H     1 shells
 l=0 nsto= 1
    1       1.200000000000        1.000000000000
 53 H     1 shells
 l=0 nsto= 1
    1       1.200000000000        1.000000000000
------------------------------------------------------------------------------
                           ORCA NDO INTEGRAL CALCULATION
------------------------------------------------------------------------------

--------------
NDO PARAMETERS
--------------

Gamma integral treatment              ... Mataga-Nishimoto
Nuclear repulsuion treatment          ... Direct (ZA*ZB/RAB)
Interaction factors:
s-s (sigma) =    1.0000
s-p (sigma) =    1.0000
s-d (sigma) =    1.0000
p-p (sigma) =    1.2670  p-p(pi) =    0.5850
p-d (sigma) =    1.0000  p-d(pi) =    1.0000
d-d (sigma) =    1.0000  d-d(pi) =    1.0000 d-d (delta) =    1.0000

fGamma parameter for Mataga-Nishimoto gamma integrals:    1.2000

--------------------------
Parameters for Element H :
--------------------------
 One-electron parameters (in eV)
  U(s)  =   -13.060000 Beta(s) =    12.000000 Neff(s) =     1.000000
 One-center electron repulsion parameters (in eV)
  G(s,s)=    12.850000
--------------------------
Parameters for Element C :
--------------------------
 One-electron parameters (in eV)
  U(s)  =   -50.870766 Beta(s) =    17.000000 Neff(s) =     2.000000
  U(p)  =   -41.599980 Beta(p) =    17.000000 Neff(p) =     2.000000 
 One-center electron repulsion parameters (in eV)
  G(s,s)=    11.110000
  G(s,p)=    11.110000 G(p,p)  =    11.110000
 Slater-Condon parameters (in eV)
 F2(p,p)=     4.5098 G1(s,p)=    6.8977
--------------------------
Parameters for Element S :
--------------------------
 One-electron parameters (in eV)
  U(s)  =   -69.509597 Beta(s) =    15.000000 Neff(s) =     2.000000
  U(p)  =   -60.725746 Beta(p) =    15.000000 Neff(p) =     4.000000 
 One-center electron repulsion parameters (in eV)
  G(s,s)=    10.090000
  G(s,p)=    10.090000 G(p,p)  =    10.090000
 Slater-Condon parameters (in eV)
 F2(p,p)=     4.5377 G1(s,p)=    3.0756

 Number of atoms                    ....   54
 Number of basis functions          ....  120

 Overlap integrals                  .... done
 One electron matrix                .... done
 Nuclear repulsion                  .... done
 Integral list                      .... done
 Electron-electron repulsion        .... done
-------------------------------------------------------------------------------
                                 ORCA SCF
-------------------------------------------------------------------------------

------------
SCF SETTINGS
------------
Hamiltonian:
 ZDO-Hamiltonian        Method          .... INDO


General Settings:
 Integral files         IntName         .... /Users/mattyjones/GoogleDrive/Boise/Code/MorphCT/tests/output_EZ/donor_polymer/chromophores/input_orca/pair/00015-00022
 Hartree-Fock type      HFTyp           .... RHF
 Total Charge           Charge          ....    0
 Multiplicity           Mult            ....    1
 Number of Electrons    NEL             ....  124
 Basis Dimension        Dim             ....  120
 Nuclear Repulsion      ENuc            ....    618.1829631771 Eh

Convergence Acceleration:
 DIIS                   CNVDIIS         .... on
   Start iteration      DIISMaxIt       ....    12
   Startup error        DIISStart       ....  0.200000
   # of expansion vecs  DIISMaxEq       ....     5
   Bias factor          DIISBfac        ....   1.050
   Max. coefficient     DIISMaxC        ....  10.000
 Newton-Raphson         CNVNR           .... off
 SOSCF                  CNVSOSCF        .... on
   Start iteration      SOSCFMaxIt      ....   150
   Startup grad/error   SOSCFStart      ....  0.003300
 Level Shifting         CNVShift        .... on
   Level shift para.    LevelShift      ....    0.2500
   Turn off err/grad.   ShiftErr        ....    0.0010
 Zerner damping         CNVZerner       .... off
 Static damping         CNVDamp         .... on
   Fraction old density DampFac         ....    0.7000
   Max. Damping (<1)    DampMax         ....    0.9800
   Min. Damping (>=0)   DampMin         ....    0.0000
   Turn off err/grad.   DampErr         ....    0.1000
 Fernandez-Rico         CNVRico         .... off

SCF Procedure:
 Maximum # iterations   MaxIter         ....   125
 SCF integral mode      SCFMode         .... Conventional
 Integral Buffer length BufferLength    .... 1048576
 Integral index format  IndFormat       ....     0
 Integral value format  ValFormat       ....     0
 Integral Storage       Thresh          ....  1.000e-08 Eh

Convergence Tolerance:
 Convergence Check Mode ConvCheckMode   .... Total+1el-Energy
 Energy Change          TolE            ....  1.000e-06 Eh
 1-El. energy change                    ....  1.000e-03 Eh
 Orbital Gradient       TolG            ....  5.000e-05
 Orbital Rotation angle TolX            ....  5.000e-05
 DIIS Error             TolErr          ....  1.000e-06


Diagonalization of the overlap matrix:
Smallest eigenvalue                        ... 1.693e-01
Time for diagonalization                   ...    0.003 sec
Threshold for overlap eigenvalues          ... 1.000e-08
Number of eigenvalues below threshold      ... 0
Time for construction of square roots      ...    0.001 sec
Total time needed                          ...    0.004 sec

-------------------------------
INITIAL GUESS: EXTENDED HUECKEL
-------------------------------
EHT matrix was read from disk
EHT matrix was diagonalized
Initial density was built
                      ------------------
                      INITIAL GUESS DONE
                      ------------------

 InCore treatment chosen:
   Memory dedicated               ...    1024 MB
   Memory needed                  ...      0 MB
   Number of tiny    integrals    ...       0
   Number of small   integrals    ...       0
   Number of regular integrals    ...    7392

--------------
SCF ITERATIONS
--------------
ITER       Energy         Delta-E        Max-DP      RMS-DP      [F,P]     Damp
  0    -17.4278748983   0.000000000000 0.04589665  0.00144476  0.0971468 0.7000
  1    -17.4697346589  -0.041859760662 0.04550340  0.00136335  0.0708964 0.7000
                               ***Turning on DIIS***
  2    -17.5007166501  -0.030981991183 0.12219876  0.00350781  0.0516039 0.0000
  3    -17.5806407561  -0.079924105991 0.02433352  0.00073937  0.0191270 0.0000
  4    -17.5665932069   0.014047549210 0.01715258  0.00050875  0.0091513 0.0000
  5    -17.5838366566  -0.017243449731 0.01206391  0.00034377  0.0054831 0.0000
  6    -17.5866501936  -0.002813537017 0.00851663  0.00024497  0.0032108 0.0000
                      *** Initiating the SOSCF procedure ***
                           *** Shutting down DIIS ***
                      *** Re-Reading the Fockian *** 
                      *** Removing any level shift *** 
ITER      Energy       Delta-E        Grad      Rot      Max-DP    RMS-DP
  7    -17.58252766   0.0041225321  0.003037  0.003037  0.005179  0.000139
  8    -17.58029322   0.0022344448  0.000868  0.002457  0.002643  0.000065
  9    -17.58030885  -0.0000156301  0.000380  0.002416  0.003047  0.000070
 10    -17.58031466  -0.0000058109  0.000044  0.000109  0.000252  0.000005
                 **** Energy Check signals convergence ****
              ***Rediagonalizing the Fockian in SOSCF/NRSCF***

               *****************************************************
               *                     SUCCESS                       *
               *           SCF CONVERGED AFTER  11 CYCLES          *
               *****************************************************


----------------
TOTAL SCF ENERGY
----------------

Total Energy       :          -17.58031473 Eh            -478.38468 eV

Components:
Nuclear Repulsion  :          618.18296318 Eh           16821.61362 eV
Electronic Energy  :         -635.76327790 Eh          -17299.99831 eV

One Electron Energy:        -1181.15624062 Eh          -32140.89532 eV
Two Electron Energy:          545.39296272 Eh           14840.89701 eV


---------------
SCF CONVERGENCE
---------------

  Last Energy change         ...   -6.7867e-08  Tolerance :   1.0000e-06
  Last MAX-Density change    ...    1.1814e-04  Tolerance :   1.0000e-05
  Last RMS-Density change    ...    1.9050e-06  Tolerance :   1.0000e-06
  Last Orbital Gradient      ...    1.7002e-05  Tolerance :   5.0000e-05
  Last Orbital Rotation      ...    3.8141e-05  Tolerance :   5.0000e-05

             **** THE GBW FILE WAS UPDATED (/Users/mattyjones/GoogleDrive/Boise/Code/MorphCT/tests/output_EZ/donor_polymer/chromophores/input_orca/pair/00015-00022.gbw) ****
             **** DENSITY FILE WAS UPDATED (/Users/mattyjones/GoogleDrive/Boise/Code/MorphCT/tests/output_EZ/donor_polymer/chromophores/input_orca/pair/00015-00022.scfp.tmp) ****
             **** ENERGY FILE WAS UPDATED (/Users/mattyjones/GoogleDrive/Boise/Code/MorphCT/tests/output_EZ/donor_polymer/chromophores/input_orca/pair/00015-00022.en.tmp) ****
----------------
ORBITAL ENERGIES
----------------

  NO   OCC          E(Eh)            E(eV) 
   0   2.0000      -1.566274       -42.6205 
   1   2.0000      -1.558085       -42.3976 
   2   2.0000      -1.411930       -38.4206 
   3   2.0000      -1.393017       -37.9059 
   4   2.0000      -1.292201       -35.1626 
   5   2.0000      -1.292159       -35.1614 
   6   2.0000      -1.189149       -32.3584 
   7   2.0000      -1.176644       -32.0181 
   8   2.0000      -1.121133       -30.5076 
   9   2.0000      -1.116066       -30.3697 
  10   2.0000      -1.039541       -28.2874 
  11   2.0000      -1.025608       -27.9082 
  12   2.0000      -0.949221       -25.8296 
  13   2.0000      -0.946854       -25.7652 
  14   2.0000      -0.914339       -24.8804 
  15   2.0000      -0.893699       -24.3188 
  16   2.0000      -0.865088       -23.5402 
  17   2.0000      -0.858623       -23.3643 
  18   2.0000      -0.837977       -22.8025 
  19   2.0000      -0.832381       -22.6502 
  20   2.0000      -0.772739       -21.0273 
  21   2.0000      -0.772530       -21.0216 
  22   2.0000      -0.736025       -20.0283 
  23   2.0000      -0.728602       -19.8263 
  24   2.0000      -0.709251       -19.2997 
  25   2.0000      -0.688897       -18.7458 
  26   2.0000      -0.675051       -18.3691 
  27   2.0000      -0.658360       -17.9149 
  28   2.0000      -0.658196       -17.9104 
  29   2.0000      -0.646182       -17.5835 
  30   2.0000      -0.624153       -16.9841 
  31   2.0000      -0.611536       -16.6407 
  32   2.0000      -0.589739       -16.0476 
  33   2.0000      -0.580140       -15.7864 
  34   2.0000      -0.575753       -15.6670 
  35   2.0000      -0.575210       -15.6523 
  36   2.0000      -0.574668       -15.6375 
  37   2.0000      -0.570491       -15.5239 
  38   2.0000      -0.555719       -15.1219 
  39   2.0000      -0.552157       -15.0250 
  40   2.0000      -0.541847       -14.7444 
  41   2.0000      -0.529480       -14.4079 
  42   2.0000      -0.514981       -14.0133 
  43   2.0000      -0.513737       -13.9795 
  44   2.0000      -0.506601       -13.7853 
  45   2.0000      -0.499136       -13.5822 
  46   2.0000      -0.495412       -13.4808 
  47   2.0000      -0.488382       -13.2896 
  48   2.0000      -0.488115       -13.2823 
  49   2.0000      -0.483310       -13.1515 
  50   2.0000      -0.481565       -13.1041 
  51   2.0000      -0.475260       -12.9325 
  52   2.0000      -0.472756       -12.8643 
  53   2.0000      -0.467628       -12.7248 
  54   2.0000      -0.464816       -12.6483 
  55   2.0000      -0.449425       -12.2295 
  56   2.0000      -0.437900       -11.9159 
  57   2.0000      -0.426835       -11.6148 
  58   2.0000      -0.356388        -9.6978 
  59   2.0000      -0.346546        -9.4300 
  60   2.0000      -0.305077        -8.3016 
  61   2.0000      -0.304609        -8.2888 
  62   0.0000       0.006539         0.1779 
  63   0.0000       0.008120         0.2210 
  64   0.0000       0.055857         1.5199 
  65   0.0000       0.066131         1.7995 
  66   0.0000       0.071907         1.9567 
  67   0.0000       0.079757         2.1703 
  68   0.0000       0.087973         2.3939 
  69   0.0000       0.089523         2.4360 
  70   0.0000       0.104225         2.8361 
  71   0.0000       0.104494         2.8434 
  72   0.0000       0.108569         2.9543 
  73   0.0000       0.108922         2.9639 
  74   0.0000       0.123768         3.3679 
  75   0.0000       0.123993         3.3740 
  76   0.0000       0.142414         3.8753 
  77   0.0000       0.143287         3.8991 
  78   0.0000       0.156445         4.2571 
  79   0.0000       0.156853         4.2682 
  80   0.0000       0.165130         4.4934 
  81   0.0000       0.168230         4.5778 
  82   0.0000       0.168708         4.5908 
  83   0.0000       0.175259         4.7691 
  84   0.0000       0.200334         5.4514 
  85   0.0000       0.206854         5.6288 
  86   0.0000       0.224489         6.1086 
  87   0.0000       0.232171         6.3177 
  88   0.0000       0.235287         6.4025 
  89   0.0000       0.235917         6.4196 
  90   0.0000       0.237318         6.4577 
  91   0.0000       0.238981         6.5030 
  92   0.0000       0.239415         6.5148 
  93   0.0000       0.239595         6.5197 
  94   0.0000       0.240232         6.5370 
  95   0.0000       0.241605         6.5744 
  96   0.0000       0.241929         6.5832 
  97   0.0000       0.243779         6.6336 
  98   0.0000       0.245557         6.6819 
  99   0.0000       0.246129         6.6975 
 100   0.0000       0.250176         6.8076 
 101   0.0000       0.255158         6.9432 
 102   0.0000       0.258507         7.0343 
 103   0.0000       0.266268         7.2455 
 104   0.0000       0.267180         7.2703 
 105   0.0000       0.267426         7.2770 
 106   0.0000       0.280484         7.6324 
 107   0.0000       0.286771         7.8034 
 108   0.0000       0.302382         8.2282 
 109   0.0000       0.309677         8.4267 
 110   0.0000       0.310472         8.4484 
 111   0.0000       0.312272         8.4973 
 112   0.0000       0.332465         9.0468 
 113   0.0000       0.342840         9.3292 
 114   0.0000       0.351622         9.5681 
 115   0.0000       0.351983         9.5779 
 116   0.0000       0.413857        11.2616 
 117   0.0000       0.421580        11.4718 
 118   0.0000       0.422844        11.5062 
 119   0.0000       0.430073        11.7029 
-------
TIMINGS
-------

Total SCF time: 0 days 0 hours 0 min 0 sec 

Total time                  ....       0.135 sec
Sum of individual times     ....       0.099 sec  ( 73.0%)

Fock matrix formation       ....       0.048 sec  ( 35.5%)
Diagonalization             ....       0.026 sec  ( 19.4%)
Density matrix formation    ....       0.005 sec  (  3.8%)
Population analysis         ....       0.000 sec  (  0.0%)
Initial guess               ....       0.003 sec  (  2.2%)
Orbital Transformation      ....       0.000 sec  (  0.0%)
Orbital Orthonormalization  ....       0.000 sec  (  0.0%)
DIIS solution               ....       0.010 sec  (  7.7%)
SOSCF solution              ....       0.006 sec  (  4.4%)

-------------------------   --------------------
FINAL SINGLE POINT ENERGY       -17.580314725593
-------------------------   --------------------


                            ***************************************
                            *     ORCA property calculations      *
                            ***************************************

                                    ---------------------
                                    Active property flags
                                    ---------------------
   (+) Dipole Moment


------------------------------------------------------------------------------
                       ORCA ELECTRIC PROPERTIES CALCULATION
------------------------------------------------------------------------------

Dipole Moment Calculation                       ... on
Quadrupole Moment Calculation                   ... off
Polarizability Calculation                      ... off
GBWName                                         ... /Users/mattyjones/GoogleDrive/Boise/Code/MorphCT/tests/output_EZ/donor_polymer/chromophores/input_orca/pair/00015-00022.gbw
Electron density file                           ... /Users/mattyjones/GoogleDrive/Boise/Code/MorphCT/tests/output_EZ/donor_polymer/chromophores/input_orca/pair/00015-00022.scfp.tmp

-------------
DIPOLE MOMENT
-------------
                                X             Y             Z
Electronic contribution:    -74.57020      56.23435     -31.10314
Nuclear contribution   :     41.11767     -33.35309      25.11679
                        -----------------------------------------
Total Dipole Moment    :    -33.45254      22.88126      -5.98636
                        -----------------------------------------
Magnitude (a.u.)       :     40.96902
Magnitude (Debye)      :    104.13498


Timings for individual modules:

Sum of individual times         ...        0.225 sec (=   0.004 min)
STO integral calculation        ...        0.044 sec (=   0.001 min)  19.6 %
SCF iterations                  ...        0.181 sec (=   0.003 min)  80.4 %
                             ****ORCA TERMINATED NORMALLY****
TOTAL RUN TIME: 0 days 0 hours 0 minutes 0 seconds 566 msec

