
                                 *****************
                                 * O   R   C   A *
                                 *****************

           --- An Ab Initio, DFT and Semiempirical electronic structure package ---

                  #######################################################
                  #                        -***-                        #
                  #  Department of molecular theory and spectroscopy    #
                  #              Directorship: Frank Neese              #
                  # Max Planck Institute for Chemical Energy Conversion #
                  #                  D-45470 Muelheim/Ruhr              #
                  #                       Germany                       #
                  #                                                     #
                  #                  All rights reserved                #
                  #                        -***-                        #
                  #######################################################


                         Program Version 3.0.3 - RELEASE   -


 With contributions from (in alphabetic order):
   Ute Becker             : Parallelization
   Dmytro Bykov           : SCF Hessian
   Dmitry Ganyushin       : Spin-Orbit,Spin-Spin,Magnetic field MRCI
   Andreas Hansen         : Spin unrestricted coupled pair/coupled cluster methods
   Dimitrios Liakos       : Extrapolation schemes; parallel MDCI
   Robert Izsak           : Overlap fitted RIJCOSX, COSX-SCS-MP3
   Christian Kollmar      : KDIIS, OOCD, Brueckner-CCSD(T), CCSD density
   Simone Kossmann        : Meta GGA functionals, TD-DFT gradient, OOMP2, MP2 Hessian
   Taras Petrenko         : DFT Hessian,TD-DFT gradient, ASA and ECA modules, normal mode analysis, Resonance Raman, ABS, FL, XAS/XES, NRVS
   Christoph Reimann      : Effective Core Potentials
   Michael Roemelt        : Restricted open shell CIS
   Christoph Riplinger    : Improved optimizer, TS searches, QM/MM, DLPNO-CCSD
   Barbara Sandhoefer     : DKH picture change effects
   Igor Schapiro          : Molecular dynamics
   Kantharuban Sivalingam : CASSCF convergence, NEVPT2
   Boris Wezisla          : Elementary symmetry handling
   Frank Wennmohs         : Technical directorship


 We gratefully acknowledge several colleagues who have allowed us to
 interface, adapt or use parts of their codes:
   Stefan Grimme, W. Hujo, H. Kruse, T. Risthaus : VdW corrections, initial TS optimization,
                                                   DFT functionals, gCP
   Ed Valeev                                     : LibInt (2-el integral package), F12 methods
   Garnet Chan, S. Sharma, R. Olivares           : DMRG
   Ulf Ekstrom                                   : XCFun DFT Library
   Mihaly Kallay                                 : mrcc  (arbitrary order and MRCC methods)
   Andreas Klamt, Michael Diedenhofen            : otool_cosmo (COSMO solvation model)
   Frank Weinhold                                : gennbo (NPA and NBO analysis)
   Christopher J. Cramer and Donald G. Truhlar   : smd solvation model


 Your calculation uses the libint2 library for the computation of 2-el integrals
 For citations please refer to: http://libint.valeyev.net

 This ORCA versions uses:
   CBLAS   interface :  Fast vector & matrix operations
   LAPACKE interface :  Fast linear algebra routines
   SCALAPACK package :  Parallel linear algebra routines


leaving
================================================================================
                                        WARNINGS
                       Please study these warnings very carefully!
================================================================================
Now building the actual basis set

WARNING: Direct SCF is incompatible with Method<>HF and Method<>DFT
  ===> : conventional SCF is chosen

WARNING: The NDO methods need Guess=HUECKEL or Guess=HCORE or Guess=MOREAD
  ===> : Guess is set to Hueckel

WARNING: The NDO methods need %rel::SOCType==1
  ===> : %rel::SOCType is set to 1

WARNING: The NDO methods cannot have frozencore=1
  ===> : %method FrozenCore=0 end


INFO   : the flag for use of LIBINT has been found!

================================================================================
                                       INPUT FILE
================================================================================
NAME = /Users/mattyjones/GoogleDrive/Boise/Code/MorphCT/tests/output_EZ/donor_polymer/chromophores/input_orca/pair/00016-00029.inp
|  1> # ================================================================
|  2> # Orca input file made by Matty Jones
|  3> # ================================================================
|  4> ! ZINDO/S 
|  5> ! NOPOP
|  6> ! NOMOPRINT
|  7> * xyz 0   1
|  8>  C  15.07766  22.58389  -15.64694
|  9>  C  16.19689  23.04167  -14.95007
| 10>  C  15.97283  24.24525  -14.21152
| 11>  C  14.67008  24.74035  -14.32581
| 12>  S  13.87521  23.67783  -15.32062
| 13>  H  17.21006  22.51662  -14.99064
| 14>  C  17.23161  24.82631  -13.38422
| 15>  C  17.77401  26.42249  -13.61010
| 16>  C  17.09950  27.69662  -12.74967
| 17>  H  16.14346  28.02226  -13.30454
| 18>  H  17.85929  28.57471  -12.84389
| 19>  H  18.90486  26.41718  -13.36932
| 20>  H  17.63624  26.65954  -14.73333
| 21>  H  17.01838  24.69830  -12.24575
| 22>  H  18.17339  24.17235  -13.62091
| 23>  C  16.80168  27.46617  -11.16709
| 24>  C  17.94568  28.08099  -10.08333
| 25>  C  19.18343  27.04978  -9.60587
| 26>  H  19.00804  25.99414  -10.04354
| 27>  H  19.20229  26.99203  -8.44907
| 28>  H  20.19502  27.46586  -9.98542
| 29>  H  18.42424  29.01287  -10.56522
| 30>  H  17.37182  28.40115  -9.13328
| 31>  H  16.70328  26.33825  -10.93873
| 32>  H  15.79149  27.97169  -10.90506
| 33>  C  -12.84177  -25.86547  11.36343
| 34>  C  -14.17329  -25.59166  11.67969
| 35>  C  -14.39422  -25.28194  13.05792
| 36>  C  -13.23131  -25.31133  13.83387
| 37>  S  -12.00813  -25.71332  12.78856
| 38>  H  -15.01783  -25.57815  10.91118
| 39>  C  -15.76922  -24.90323  13.86116
| 40>  C  -17.31464  -25.63657  14.19833
| 41>  C  -18.91873  -25.82273  13.61046
| 42>  H  -19.60857  -25.61536  14.52271
| 43>  H  -19.07133  -24.96353  12.85433
| 44>  H  -16.98761  -26.74167  14.33933
| 45>  H  -17.52842  -25.18391  15.25157
| 46>  H  -16.14111  -23.90862  13.35552
| 47>  H  -15.43634  -24.60664  14.94590
| 48>  C  -19.37757  -27.24301  12.96140
| 49>  C  -19.70129  -27.33238  11.31055
| 50>  C  -19.77097  -25.85607  10.51579
| 51>  H  -18.72797  -25.35690  10.53408
| 52>  H  -20.54501  -25.17320  11.04068
| 53>  H  -20.09869  -26.03190  9.41930
| 54>  H  -18.87305  -27.96602  10.81815
| 55>  H  -20.71776  -27.86137  11.17324
| 56>  H  -18.55619  -28.03252  13.17951
| 57>  H  -20.34795  -27.58739  13.50000
| 58>  H  15.01051  21.71917  -16.25634
| 59>  H  14.27360  25.61223  -13.87168
| 60>  H  -12.44676  -26.11754  10.41262
| 61>  H  -13.14883  -25.11729  14.87269
| 62> *
| 63> 
| 64>                          ****END OF INPUT****
================================================================================

                       ****************************
                       * Single Point Calculation *
                       ****************************

---------------------------------
CARTESIAN COORDINATES (ANGSTROEM)
---------------------------------
  C     15.077660   22.583890  -15.646940
  C     16.196890   23.041670  -14.950070
  C     15.972830   24.245250  -14.211520
  C     14.670080   24.740350  -14.325810
  S     13.875210   23.677830  -15.320620
  H     17.210060   22.516620  -14.990640
  C     17.231610   24.826310  -13.384220
  C     17.774010   26.422490  -13.610100
  C     17.099500   27.696620  -12.749670
  H     16.143460   28.022260  -13.304540
  H     17.859290   28.574710  -12.843890
  H     18.904860   26.417180  -13.369320
  H     17.636240   26.659540  -14.733330
  H     17.018380   24.698300  -12.245750
  H     18.173390   24.172350  -13.620910
  C     16.801680   27.466170  -11.167090
  C     17.945680   28.080990  -10.083330
  C     19.183430   27.049780   -9.605870
  H     19.008040   25.994140  -10.043540
  H     19.202290   26.992030   -8.449070
  H     20.195020   27.465860   -9.985420
  H     18.424240   29.012870  -10.565220
  H     17.371820   28.401150   -9.133280
  H     16.703280   26.338250  -10.938730
  H     15.791490   27.971690  -10.905060
  C    -12.841770  -25.865470   11.363430
  C    -14.173290  -25.591660   11.679690
  C    -14.394220  -25.281940   13.057920
  C    -13.231310  -25.311330   13.833870
  S    -12.008130  -25.713320   12.788560
  H    -15.017830  -25.578150   10.911180
  C    -15.769220  -24.903230   13.861160
  C    -17.314640  -25.636570   14.198330
  C    -18.918730  -25.822730   13.610460
  H    -19.608570  -25.615360   14.522710
  H    -19.071330  -24.963530   12.854330
  H    -16.987610  -26.741670   14.339330
  H    -17.528420  -25.183910   15.251570
  H    -16.141110  -23.908620   13.355520
  H    -15.436340  -24.606640   14.945900
  C    -19.377570  -27.243010   12.961400
  C    -19.701290  -27.332380   11.310550
  C    -19.770970  -25.856070   10.515790
  H    -18.727970  -25.356900   10.534080
  H    -20.545010  -25.173200   11.040680
  H    -20.098690  -26.031900    9.419300
  H    -18.873050  -27.966020   10.818150
  H    -20.717760  -27.861370   11.173240
  H    -18.556190  -28.032520   13.179510
  H    -20.347950  -27.587390   13.500000
  H     15.010510   21.719170  -16.256340
  H     14.273600   25.612230  -13.871680
  H    -12.446760  -26.117540   10.412620
  H    -13.148830  -25.117290   14.872690

----------------------------
CARTESIAN COORDINATES (A.U.)
----------------------------
  NO LB      ZA    FRAG    MASS        X           Y           Z
   0 C     4.0000    0    12.011         28.492648140379099         42.677367138602818        -29.568431433897789
   1 C     4.0000    0    12.011         30.607686321247780         43.542445968189284        -28.251537982952087
   2 C     4.0000    0    12.011         30.184274283681386         45.816882548454224        -26.855880746744546
   3 C     4.0000    0    12.011         27.722433562715477         46.752485957358637        -27.071857546590408
   4 S     6.0000    0    32.060         26.220346950645489         44.744614145544631        -28.951776001876606
   5 H     1.0000    0     1.008         32.522300148352777         42.550245261573934        -28.328204172205275
   6 C     4.0000    0    12.011         32.563023746538782         46.914926815830505        -25.292510316151493
   7 C     4.0000    0    12.011         33.588011201577665         49.931269876272935        -25.719361655281627
   8 C     4.0000    0    12.011         32.313372026986443         52.339026635286018        -24.093384597871765
   9 H     1.0000    0     1.008         30.506718253912371         52.954397053536134        -25.141936937800647
  10 H     1.0000    0     1.008         33.749167046278473         53.998376256220929        -24.271434594209826
  11 H     1.0000    0     1.008         35.725008000122514         49.921235430501810        -25.264353396756068
  12 H     1.0000    0     1.008         33.327663632107338         50.379229456318967        -27.841958740685996
  13 H     1.0000    0     1.008         32.160077443002749         46.673022973427251        -23.141113804466166
  14 H     1.0000    0     1.008         34.342730024943137         45.679121513291371        -25.739789594789318
  15 C     4.0000    0    12.011         31.750573789782017         51.903539247723870        -21.102741812850670
  16 C     4.0000    0    12.011         33.912420486987926         53.065380669381327        -19.054732217952175
  17 C     4.0000    0    12.011         36.251429009248959         51.116676182820392        -18.152463578050131
  18 H     1.0000    0     1.008         35.919989942620511         49.121805686807768        -18.979540015083447
  19 H     1.0000    0     1.008         36.287069244134713         51.007544498586441        -15.966428386330032
  20 H     1.0000    0     1.008         38.163057069062354         51.902953432622347        -18.869709132179945
  21 H     1.0000    0     1.008         34.816767825637285         54.826378659059863        -19.965372344627486
  22 H     1.0000    0     1.008         32.827982247775878         53.670395388417560        -17.259397904420286
  23 H     1.0000    0     1.008         31.564624738204163         49.772079346751404        -20.671203952908414
  24 H     1.0000    0     1.008         29.841591346556104         52.858833602943733        -20.607576873979287
  25 C     4.0000    0    12.011        -24.267428374805913        -48.878654625156116         21.473770641984768
  26 C     4.0000    0    12.011        -26.783636516644737        -48.361228712427142         22.071415429098707
  27 C     4.0000    0    12.011        -27.201133711411959        -47.775942734229048         24.675892678652989
  28 C     4.0000    0    12.011        -25.003552293013598        -47.831481785304995         26.142225672269184
  29 S     6.0000    0    32.060        -22.692077080523799        -48.591132793880000         24.166876047219962
  30 H     1.0000    0     1.008        -28.379585825786592        -48.335698512357865         20.619141997918881
  31 C     4.0000    0    12.011        -29.799507145553683        -47.060284550051733         26.193796298463898
  32 C     4.0000    0    12.011        -32.719927707438259        -48.446096313101542         26.830955259038127
  33 C     4.0000    0    12.011        -35.751218501600000        -48.797887730192322         25.720041956689837
  34 H     1.0000    0     1.008        -37.054827177824237        -48.406015221801070         27.443944622359499
  35 H     1.0000    0     1.008        -36.039590709636386        -47.174235035927182         24.291163335047962
  36 H     1.0000    0     1.008        -32.101930569861992        -50.534432663697913         27.097406643921023
  37 H     1.0000    0     1.008        -33.123913360347949        -47.590692881320749         28.821290412329343
  38 H     1.0000    0     1.008        -30.502277397497657        -45.180744039992312         25.238275176107955
  39 H     1.0000    0     1.008        -29.170455110093972        -46.499810675992023         28.243657824973635
  40 C     4.0000    0    12.011        -36.618300440888426        -51.481827963678001         24.493496312206911
  41 C     4.0000    0    12.011        -37.230042584961417        -51.650712788266539         21.373841924023012
  42 C     4.0000    0    12.011        -37.361718701973047        -48.860891199497253         19.871963181827759
  43 H     1.0000    0     1.008        -35.390734344293179        -47.917596605227786         19.906526272817178
  44 H     1.0000    0     1.008        -38.824442318673455        -47.570453914426452         20.863861532261684
  45 H     1.0000    0     1.008        -37.981019750581723        -49.193161745624629         17.799897373244445
  46 H     1.0000    0     1.008        -35.664895811802474        -52.848118855764405         20.443340775680188
  47 H     1.0000    0     1.008        -39.150892508308345        -52.650359015849546         21.114363628574285
  48 H     1.0000    0     1.008        -35.066117189008196        -52.973785643670169         24.905664479276478
  49 H     1.0000    0     1.008        -38.452052886722932        -52.132611849677801         25.511302807936897
  50 H     1.0000    0     1.008         28.365753030486289         41.043283156078431        -30.720030539909402
  51 H     1.0000    0     1.008         26.973194945138378         48.400100379001898        -26.213676217392749
  52 H     1.0000    0     1.008        -23.520967654645677        -49.354997891733653         19.677000136591104
  53 H     1.0000    0     1.008        -24.847687681487773        -47.464799326278914         28.105310974709262

--------------------------------
INTERNAL COORDINATES (ANGSTROEM)
--------------------------------
 C      0   0   0   0.000000     0.000     0.000
 C      1   0   0   1.395660     0.000     0.000
 C      2   1   0   1.429778   114.102     0.000
 C      3   2   1   1.398336   113.692     0.000
 S      1   2   3   1.658034   105.480     0.000
 H      2   1   3   1.141857   122.888   181.642
 C      3   2   1   1.614492   116.454   180.042
 C      7   3   2   1.700885   121.220   125.123
 C      8   7   3   1.678902   121.065    86.481
 H      9   8   7   1.152360   107.518   276.378
 H      9   8   7   1.164989   105.578   162.628
 H      8   7   3   1.156211   106.256   208.348
 H      8   7   3   1.156209   106.464   324.040
 H      7   3   2   1.165319   108.567   249.371
 H      7   3   2   1.170741   108.818     4.855
 C      9   8   7   1.626765   117.686    42.384
 C     16   9   8   1.691530   116.615    99.036
 C     17  16   9   1.680294   117.205   268.292
 H     18  17  16   1.156154   109.940   355.039
 H     18  17  16   1.158394   109.047   234.891
 H     18  17  16   1.157798   109.263   115.441
 H     17  16   9   1.153099   107.859    30.341
 H     17  16   9   1.155168   106.959   147.484
 H     16   9   8   1.155004   110.260   337.312
 H     16   9   8   1.159609   108.515   219.374
 C      1   2   3  62.099880   113.532   256.274
 C     26   1   2   1.395685   111.988   121.018
 C     27  26   1   1.429774   114.101   258.632
 C     28  27  26   1.398328   113.694     0.000
 S     26   1   2   1.658041    94.371    12.383
 H     27  26   1   1.141945   123.737    76.700
 C     28  27  26   1.636839   130.765   179.958
 C     32  28  27   1.743501   137.918    60.190
 C     33  32  28   1.718532   143.782   271.101
 H     34  33  32   1.162360   105.436   227.051
 H     34  33  32   1.154662   105.472   340.775
 H     33  32  28   1.161067   100.030    37.084
 H     33  32  28   1.166155   100.014   147.715
 H     32  28  27   1.176105   104.496   298.138
 H     32  28  27   1.172790   105.900   186.582
 C     34  33  32   1.627577   119.610   105.953
 C     41  34  33   1.684662   119.423   248.495
 C     42  41  34   1.678091   115.177   349.923
 H     43  42  41   1.156440   109.560    65.464
 H     43  42  41   1.157998   109.382   304.880
 H     43  42  41   1.157846   109.067   185.454
 H     42  41  34   1.153230   108.032   110.881
 H     42  41  34   1.154078   108.068   228.990
 H     41  34  33   1.159984   108.622    10.797
 H     41  34  33   1.162035   108.011   127.231
 H      1   2   3   1.060009   127.260   180.000
 H      4   3   2   1.060002   127.206   180.000
 H     26   1   2   1.060006    68.151   243.807
 H     29  28  27   1.060001   127.206   180.000

---------------------------
INTERNAL COORDINATES (A.U.)
---------------------------
 C      0   0   0   0.000000     0.000     0.000
 C      1   0   0   2.637415     0.000     0.000
 C      2   1   0   2.701888   114.102     0.000
 C      3   2   1   2.642472   113.692     0.000
 S      1   2   3   3.133229   105.480     0.000
 H      2   1   3   2.157797   122.888   181.642
 C      3   2   1   3.050947   116.454   180.042
 C      7   3   2   3.214207   121.220   125.123
 C      8   7   3   3.172664   121.065    86.481
 H      9   8   7   2.177646   107.518   276.378
 H      9   8   7   2.201511   105.578   162.628
 H      8   7   3   2.184923   106.256   208.348
 H      8   7   3   2.184918   106.464   324.040
 H      7   3   2   2.202133   108.567   249.371
 H      7   3   2   2.212381   108.818     4.855
 C      9   8   7   3.074140   117.686    42.384
 C     16   9   8   3.196529   116.615    99.036
 C     17  16   9   3.175295   117.205   268.292
 H     18  17  16   2.184815   109.940   355.039
 H     18  17  16   2.189048   109.047   234.891
 H     18  17  16   2.187920   109.263   115.441
 H     17  16   9   2.179042   107.859    30.341
 H     17  16   9   2.182951   106.959   147.484
 H     16   9   8   2.182641   110.260   337.312
 H     16   9   8   2.191344   108.515   219.374
 C      1   2   3 117.351767   113.532   256.274
 C     26   1   2   2.637463   111.988   121.018
 C     27  26   1   2.701882   114.101   258.632
 C     28  27  26   2.642457   113.694     0.000
 S     26   1   2   3.133244    94.371    12.383
 H     27  26   1   2.157963   123.737    76.700
 C     28  27  26   3.093177   130.765   179.958
 C     32  28  27   3.294739   137.918    60.190
 C     33  32  28   3.247554   143.782   271.101
 H     34  33  32   2.196543   105.436   227.051
 H     34  33  32   2.181995   105.472   340.775
 H     33  32  28   2.194098   100.030    37.084
 H     33  32  28   2.203714   100.014   147.715
 H     32  28  27   2.222516   104.496   298.138
 H     32  28  27   2.216251   105.900   186.582
 C     34  33  32   3.075676   119.610   105.953
 C     41  34  33   3.183551   119.423   248.495
 C     42  41  34   3.171133   115.177   349.923
 H     43  42  41   2.185355   109.560    65.464
 H     43  42  41   2.188299   109.382   304.880
 H     43  42  41   2.188011   109.067   185.454
 H     42  41  34   2.179288   108.032   110.881
 H     42  41  34   2.180891   108.068   228.990
 H     41  34  33   2.192052   108.622    10.797
 H     41  34  33   2.195928   108.011   127.231
 H      1   2   3   2.003126   127.260   180.000
 H      4   3   2   2.003114   127.206   180.000
 H     26   1   2   2.003120    68.151   243.807
 H     29  28  27   2.003111   127.206   180.000

----------------------------
SLATER BASIS SET DIM= 120
----------------------------
  0 C     2 shells
 l=0 nsto= 1
    2       1.625000000000        1.000000000000
 l=1 nsto= 1
    2       1.625000000000        1.000000000000
  1 C     2 shells
 l=0 nsto= 1
    2       1.625000000000        1.000000000000
 l=1 nsto= 1
    2       1.625000000000        1.000000000000
  2 C     2 shells
 l=0 nsto= 1
    2       1.625000000000        1.000000000000
 l=1 nsto= 1
    2       1.625000000000        1.000000000000
  3 C     2 shells
 l=0 nsto= 1
    2       1.625000000000        1.000000000000
 l=1 nsto= 1
    2       1.625000000000        1.000000000000
  4 S     2 shells
 l=0 nsto= 1
    3       1.925000000000        1.000000000000
 l=1 nsto= 1
    3       1.925000000000        1.000000000000
  5 H     1 shells
 l=0 nsto= 1
    1       1.200000000000        1.000000000000
  6 C     2 shells
 l=0 nsto= 1
    2       1.625000000000        1.000000000000
 l=1 nsto= 1
    2       1.625000000000        1.000000000000
  7 C     2 shells
 l=0 nsto= 1
    2       1.625000000000        1.000000000000
 l=1 nsto= 1
    2       1.625000000000        1.000000000000
  8 C     2 shells
 l=0 nsto= 1
    2       1.625000000000        1.000000000000
 l=1 nsto= 1
    2       1.625000000000        1.000000000000
  9 H     1 shells
 l=0 nsto= 1
    1       1.200000000000        1.000000000000
 10 H     1 shells
 l=0 nsto= 1
    1       1.200000000000        1.000000000000
 11 H     1 shells
 l=0 nsto= 1
    1       1.200000000000        1.000000000000
 12 H     1 shells
 l=0 nsto= 1
    1       1.200000000000        1.000000000000
 13 H     1 shells
 l=0 nsto= 1
    1       1.200000000000        1.000000000000
 14 H     1 shells
 l=0 nsto= 1
    1       1.200000000000        1.000000000000
 15 C     2 shells
 l=0 nsto= 1
    2       1.625000000000        1.000000000000
 l=1 nsto= 1
    2       1.625000000000        1.000000000000
 16 C     2 shells
 l=0 nsto= 1
    2       1.625000000000        1.000000000000
 l=1 nsto= 1
    2       1.625000000000        1.000000000000
 17 C     2 shells
 l=0 nsto= 1
    2       1.625000000000        1.000000000000
 l=1 nsto= 1
    2       1.625000000000        1.000000000000
 18 H     1 shells
 l=0 nsto= 1
    1       1.200000000000        1.000000000000
 19 H     1 shells
 l=0 nsto= 1
    1       1.200000000000        1.000000000000
 20 H     1 shells
 l=0 nsto= 1
    1       1.200000000000        1.000000000000
 21 H     1 shells
 l=0 nsto= 1
    1       1.200000000000        1.000000000000
 22 H     1 shells
 l=0 nsto= 1
    1       1.200000000000        1.000000000000
 23 H     1 shells
 l=0 nsto= 1
    1       1.200000000000        1.000000000000
 24 H     1 shells
 l=0 nsto= 1
    1       1.200000000000        1.000000000000
 25 C     2 shells
 l=0 nsto= 1
    2       1.625000000000        1.000000000000
 l=1 nsto= 1
    2       1.625000000000        1.000000000000
 26 C     2 shells
 l=0 nsto= 1
    2       1.625000000000        1.000000000000
 l=1 nsto= 1
    2       1.625000000000        1.000000000000
 27 C     2 shells
 l=0 nsto= 1
    2       1.625000000000        1.000000000000
 l=1 nsto= 1
    2       1.625000000000        1.000000000000
 28 C     2 shells
 l=0 nsto= 1
    2       1.625000000000        1.000000000000
 l=1 nsto= 1
    2       1.625000000000        1.000000000000
 29 S     2 shells
 l=0 nsto= 1
    3       1.925000000000        1.000000000000
 l=1 nsto= 1
    3       1.925000000000        1.000000000000
 30 H     1 shells
 l=0 nsto= 1
    1       1.200000000000        1.000000000000
 31 C     2 shells
 l=0 nsto= 1
    2       1.625000000000        1.000000000000
 l=1 nsto= 1
    2       1.625000000000        1.000000000000
 32 C     2 shells
 l=0 nsto= 1
    2       1.625000000000        1.000000000000
 l=1 nsto= 1
    2       1.625000000000        1.000000000000
 33 C     2 shells
 l=0 nsto= 1
    2       1.625000000000        1.000000000000
 l=1 nsto= 1
    2       1.625000000000        1.000000000000
 34 H     1 shells
 l=0 nsto= 1
    1       1.200000000000        1.000000000000
 35 H     1 shells
 l=0 nsto= 1
    1       1.200000000000        1.000000000000
 36 H     1 shells
 l=0 nsto= 1
    1       1.200000000000        1.000000000000
 37 H     1 shells
 l=0 nsto= 1
    1       1.200000000000        1.000000000000
 38 H     1 shells
 l=0 nsto= 1
    1       1.200000000000        1.000000000000
 39 H     1 shells
 l=0 nsto= 1
    1       1.200000000000        1.000000000000
 40 C     2 shells
 l=0 nsto= 1
    2       1.625000000000        1.000000000000
 l=1 nsto= 1
    2       1.625000000000        1.000000000000
 41 C     2 shells
 l=0 nsto= 1
    2       1.625000000000        1.000000000000
 l=1 nsto= 1
    2       1.625000000000        1.000000000000
 42 C     2 shells
 l=0 nsto= 1
    2       1.625000000000        1.000000000000
 l=1 nsto= 1
    2       1.625000000000        1.000000000000
 43 H     1 shells
 l=0 nsto= 1
    1       1.200000000000        1.000000000000
 44 H     1 shells
 l=0 nsto= 1
    1       1.200000000000        1.000000000000
 45 H     1 shells
 l=0 nsto= 1
    1       1.200000000000        1.000000000000
 46 H     1 shells
 l=0 nsto= 1
    1       1.200000000000        1.000000000000
 47 H     1 shells
 l=0 nsto= 1
    1       1.200000000000        1.000000000000
 48 H     1 shells
 l=0 nsto= 1
    1       1.200000000000        1.000000000000
 49 H     1 shells
 l=0 nsto= 1
    1       1.200000000000        1.000000000000
 50 H     1 shells
 l=0 nsto= 1
    1       1.200000000000        1.000000000000
 51 H     1 shells
 l=0 nsto= 1
    1       1.200000000000        1.000000000000
 52 H     1 shells
 l=0 nsto= 1
    1       1.200000000000        1.000000000000
 53 H     1 shells
 l=0 nsto= 1
    1       1.200000000000        1.000000000000
------------------------------------------------------------------------------
                           ORCA NDO INTEGRAL CALCULATION
------------------------------------------------------------------------------

--------------
NDO PARAMETERS
--------------

Gamma integral treatment              ... Mataga-Nishimoto
Nuclear repulsuion treatment          ... Direct (ZA*ZB/RAB)
Interaction factors:
s-s (sigma) =    1.0000
s-p (sigma) =    1.0000
s-d (sigma) =    1.0000
p-p (sigma) =    1.2670  p-p(pi) =    0.5850
p-d (sigma) =    1.0000  p-d(pi) =    1.0000
d-d (sigma) =    1.0000  d-d(pi) =    1.0000 d-d (delta) =    1.0000

fGamma parameter for Mataga-Nishimoto gamma integrals:    1.2000

--------------------------
Parameters for Element H :
--------------------------
 One-electron parameters (in eV)
  U(s)  =   -13.060000 Beta(s) =    12.000000 Neff(s) =     1.000000
 One-center electron repulsion parameters (in eV)
  G(s,s)=    12.850000
--------------------------
Parameters for Element C :
--------------------------
 One-electron parameters (in eV)
  U(s)  =   -50.870766 Beta(s) =    17.000000 Neff(s) =     2.000000
  U(p)  =   -41.599980 Beta(p) =    17.000000 Neff(p) =     2.000000 
 One-center electron repulsion parameters (in eV)
  G(s,s)=    11.110000
  G(s,p)=    11.110000 G(p,p)  =    11.110000
 Slater-Condon parameters (in eV)
 F2(p,p)=     4.5098 G1(s,p)=    6.8977
--------------------------
Parameters for Element S :
--------------------------
 One-electron parameters (in eV)
  U(s)  =   -69.509597 Beta(s) =    15.000000 Neff(s) =     2.000000
  U(p)  =   -60.725746 Beta(p) =    15.000000 Neff(p) =     4.000000 
 One-center electron repulsion parameters (in eV)
  G(s,s)=    10.090000
  G(s,p)=    10.090000 G(p,p)  =    10.090000
 Slater-Condon parameters (in eV)
 F2(p,p)=     4.5377 G1(s,p)=    3.0756

 Number of atoms                    ....   54
 Number of basis functions          ....  120

 Overlap integrals                  .... done
 One electron matrix                .... done
 Nuclear repulsion                  .... done
 Integral list                      .... done
 Electron-electron repulsion        .... done
-------------------------------------------------------------------------------
                                 ORCA SCF
-------------------------------------------------------------------------------

------------
SCF SETTINGS
------------
Hamiltonian:
 ZDO-Hamiltonian        Method          .... INDO


General Settings:
 Integral files         IntName         .... /Users/mattyjones/GoogleDrive/Boise/Code/MorphCT/tests/output_EZ/donor_polymer/chromophores/input_orca/pair/00016-00029
 Hartree-Fock type      HFTyp           .... RHF
 Total Charge           Charge          ....    0
 Multiplicity           Mult            ....    1
 Number of Electrons    NEL             ....  124
 Basis Dimension        Dim             ....  120
 Nuclear Repulsion      ENuc            ....    622.1422855581 Eh

Convergence Acceleration:
 DIIS                   CNVDIIS         .... on
   Start iteration      DIISMaxIt       ....    12
   Startup error        DIISStart       ....  0.200000
   # of expansion vecs  DIISMaxEq       ....     5
   Bias factor          DIISBfac        ....   1.050
   Max. coefficient     DIISMaxC        ....  10.000
 Newton-Raphson         CNVNR           .... off
 SOSCF                  CNVSOSCF        .... on
   Start iteration      SOSCFMaxIt      ....   150
   Startup grad/error   SOSCFStart      ....  0.003300
 Level Shifting         CNVShift        .... on
   Level shift para.    LevelShift      ....    0.2500
   Turn off err/grad.   ShiftErr        ....    0.0010
 Zerner damping         CNVZerner       .... off
 Static damping         CNVDamp         .... on
   Fraction old density DampFac         ....    0.7000
   Max. Damping (<1)    DampMax         ....    0.9800
   Min. Damping (>=0)   DampMin         ....    0.0000
   Turn off err/grad.   DampErr         ....    0.1000
 Fernandez-Rico         CNVRico         .... off

SCF Procedure:
 Maximum # iterations   MaxIter         ....   125
 SCF integral mode      SCFMode         .... Conventional
 Integral Buffer length BufferLength    .... 1048576
 Integral index format  IndFormat       ....     0
 Integral value format  ValFormat       ....     0
 Integral Storage       Thresh          ....  1.000e-08 Eh

Convergence Tolerance:
 Convergence Check Mode ConvCheckMode   .... Total+1el-Energy
 Energy Change          TolE            ....  1.000e-06 Eh
 1-El. energy change                    ....  1.000e-03 Eh
 Orbital Gradient       TolG            ....  5.000e-05
 Orbital Rotation angle TolX            ....  5.000e-05
 DIIS Error             TolErr          ....  1.000e-06


Diagonalization of the overlap matrix:
Smallest eigenvalue                        ... 1.697e-01
Time for diagonalization                   ...    0.003 sec
Threshold for overlap eigenvalues          ... 1.000e-08
Number of eigenvalues below threshold      ... 0
Time for construction of square roots      ...    0.001 sec
Total time needed                          ...    0.004 sec

-------------------------------
INITIAL GUESS: EXTENDED HUECKEL
-------------------------------
EHT matrix was read from disk
EHT matrix was diagonalized
Initial density was built
                      ------------------
                      INITIAL GUESS DONE
                      ------------------

 InCore treatment chosen:
   Memory dedicated               ...    1024 MB
   Memory needed                  ...      0 MB
   Number of tiny    integrals    ...       0
   Number of small   integrals    ...       0
   Number of regular integrals    ...    7392

--------------
SCF ITERATIONS
--------------
ITER       Energy         Delta-E        Max-DP      RMS-DP      [F,P]     Damp
  0    -18.6338051335   0.000000000000 0.04478745  0.00144174  0.0842571 0.7000
  1    -18.6756137647  -0.041808631155 0.04416028  0.00135946  0.0645790 0.7000
                               ***Turning on DIIS***
  2    -18.7065366221  -0.030922857382 0.11781130  0.00349487  0.0469628 0.0000
  3    -18.7893766365  -0.082840014416 0.02379170  0.00073055  0.0170640 0.0000
  4    -18.7720574181   0.017319218387 0.01597550  0.00050244  0.0082975 0.0000
  5    -18.7892657912  -0.017208373133 0.01124467  0.00033893  0.0049661 0.0000
  6    -18.7914317221  -0.002165930804 0.00837624  0.00023994  0.0030588 0.0000
                      *** Initiating the SOSCF procedure ***
                           *** Shutting down DIIS ***
                      *** Re-Reading the Fockian *** 
                      *** Removing any level shift *** 
ITER      Energy       Delta-E        Grad      Rot      Max-DP    RMS-DP
  7    -18.78744739   0.0039843295  0.003022  0.003022  0.005022  0.000135
  8    -18.78583538   0.0016120140  0.000806  0.002211  0.002516  0.000062
  9    -18.78584990  -0.0000145184  0.000354  0.002153  0.002803  0.000066
 10    -18.78585520  -0.0000053041  0.000030  0.000078  0.000139  0.000004
                 **** Energy Check signals convergence ****
              ***Rediagonalizing the Fockian in SOSCF/NRSCF***

               *****************************************************
               *                     SUCCESS                       *
               *           SCF CONVERGED AFTER  11 CYCLES          *
               *****************************************************


----------------
TOTAL SCF ENERGY
----------------

Total Energy       :          -18.78585525 Eh            -511.18911 eV

Components:
Nuclear Repulsion  :          622.14228556 Eh           16929.35226 eV
Electronic Energy  :         -640.92814081 Eh          -17440.54137 eV

One Electron Energy:        -1191.52958319 Eh          -32423.16832 eV
Two Electron Energy:          550.60144239 Eh           14982.62695 eV


---------------
SCF CONVERGENCE
---------------

  Last Energy change         ...   -4.7124e-08  Tolerance :   1.0000e-06
  Last MAX-Density change    ...    5.1414e-05  Tolerance :   1.0000e-05
  Last RMS-Density change    ...    1.2721e-06  Tolerance :   1.0000e-06
  Last Orbital Gradient      ...    1.0411e-05  Tolerance :   5.0000e-05
  Last Orbital Rotation      ...    2.2706e-05  Tolerance :   5.0000e-05

             **** THE GBW FILE WAS UPDATED (/Users/mattyjones/GoogleDrive/Boise/Code/MorphCT/tests/output_EZ/donor_polymer/chromophores/input_orca/pair/00016-00029.gbw) ****
             **** DENSITY FILE WAS UPDATED (/Users/mattyjones/GoogleDrive/Boise/Code/MorphCT/tests/output_EZ/donor_polymer/chromophores/input_orca/pair/00016-00029.scfp.tmp) ****
             **** ENERGY FILE WAS UPDATED (/Users/mattyjones/GoogleDrive/Boise/Code/MorphCT/tests/output_EZ/donor_polymer/chromophores/input_orca/pair/00016-00029.en.tmp) ****
----------------
ORBITAL ENERGIES
----------------

  NO   OCC          E(Eh)            E(eV) 
   0   2.0000      -1.557231       -42.3744 
   1   2.0000      -1.555254       -42.3206 
   2   2.0000      -1.404364       -38.2147 
   3   2.0000      -1.396172       -37.9918 
   4   2.0000      -1.283564       -34.9275 
   5   2.0000      -1.277954       -34.7749 
   6   2.0000      -1.187468       -32.3126 
   7   2.0000      -1.177767       -32.0487 
   8   2.0000      -1.114042       -30.3146 
   9   2.0000      -1.106531       -30.1103 
  10   2.0000      -1.064526       -28.9672 
  11   2.0000      -1.051532       -28.6136 
  12   2.0000      -0.990908       -26.9640 
  13   2.0000      -0.962023       -26.1780 
  14   2.0000      -0.906720       -24.6731 
  15   2.0000      -0.904041       -24.6002 
  16   2.0000      -0.846017       -23.0213 
  17   2.0000      -0.836561       -22.7640 
  18   2.0000      -0.828435       -22.5429 
  19   2.0000      -0.823123       -22.3983 
  20   2.0000      -0.783429       -21.3182 
  21   2.0000      -0.775856       -21.1121 
  22   2.0000      -0.724661       -19.7190 
  23   2.0000      -0.723815       -19.6960 
  24   2.0000      -0.704800       -19.1786 
  25   2.0000      -0.697636       -18.9836 
  26   2.0000      -0.679076       -18.4786 
  27   2.0000      -0.669911       -18.2292 
  28   2.0000      -0.641008       -17.4427 
  29   2.0000      -0.633195       -17.2301 
  30   2.0000      -0.620754       -16.8916 
  31   2.0000      -0.617647       -16.8070 
  32   2.0000      -0.590937       -16.0802 
  33   2.0000      -0.590741       -16.0749 
  34   2.0000      -0.576787       -15.6952 
  35   2.0000      -0.575365       -15.6565 
  36   2.0000      -0.571197       -15.5431 
  37   2.0000      -0.566720       -15.4212 
  38   2.0000      -0.549396       -14.9498 
  39   2.0000      -0.543722       -14.7954 
  40   2.0000      -0.534687       -14.5496 
  41   2.0000      -0.534524       -14.5451 
  42   2.0000      -0.520472       -14.1628 
  43   2.0000      -0.512436       -13.9441 
  44   2.0000      -0.505080       -13.7439 
  45   2.0000      -0.503404       -13.6983 
  46   2.0000      -0.499817       -13.6007 
  47   2.0000      -0.495227       -13.4758 
  48   2.0000      -0.490790       -13.3551 
  49   2.0000      -0.483409       -13.1542 
  50   2.0000      -0.474743       -12.9184 
  51   2.0000      -0.470268       -12.7966 
  52   2.0000      -0.469255       -12.7691 
  53   2.0000      -0.465716       -12.6728 
  54   2.0000      -0.461461       -12.5570 
  55   2.0000      -0.439133       -11.9494 
  56   2.0000      -0.437112       -11.8944 
  57   2.0000      -0.430285       -11.7086 
  58   2.0000      -0.357352        -9.7240 
  59   2.0000      -0.356963        -9.7135 
  60   2.0000      -0.305676        -8.3179 
  61   2.0000      -0.304640        -8.2897 
  62   0.0000       0.005728         0.1559 
  63   0.0000       0.007648         0.2081 
  64   0.0000       0.040017         1.0889 
  65   0.0000       0.069257         1.8846 
  66   0.0000       0.072806         1.9812 
  67   0.0000       0.078241         2.1290 
  68   0.0000       0.084021         2.2863 
  69   0.0000       0.084798         2.3075 
  70   0.0000       0.099260         2.7010 
  71   0.0000       0.104766         2.8508 
  72   0.0000       0.106284         2.8921 
  73   0.0000       0.107633         2.9289 
  74   0.0000       0.120802         3.2872 
  75   0.0000       0.122595         3.3360 
  76   0.0000       0.144351         3.9280 
  77   0.0000       0.145705         3.9648 
  78   0.0000       0.158467         4.3121 
  79   0.0000       0.159855         4.3499 
  80   0.0000       0.164306         4.4710 
  81   0.0000       0.166379         4.5274 
  82   0.0000       0.167626         4.5613 
  83   0.0000       0.174046         4.7360 
  84   0.0000       0.202081         5.4989 
  85   0.0000       0.204223         5.5572 
  86   0.0000       0.220262         5.9936 
  87   0.0000       0.229406         6.2425 
  88   0.0000       0.229513         6.2454 
  89   0.0000       0.230463         6.2712 
  90   0.0000       0.231879         6.3097 
  91   0.0000       0.236774         6.4429 
  92   0.0000       0.237115         6.4522 
  93   0.0000       0.238189         6.4815 
  94   0.0000       0.239098         6.5062 
  95   0.0000       0.239378         6.5138 
  96   0.0000       0.240117         6.5339 
  97   0.0000       0.242153         6.5893 
  98   0.0000       0.242739         6.6053 
  99   0.0000       0.244601         6.6559 
 100   0.0000       0.244655         6.6574 
 101   0.0000       0.250439         6.8148 
 102   0.0000       0.255933         6.9643 
 103   0.0000       0.257227         6.9995 
 104   0.0000       0.265297         7.2191 
 105   0.0000       0.267062         7.2671 
 106   0.0000       0.279191         7.5972 
 107   0.0000       0.282317         7.6822 
 108   0.0000       0.304817         8.2945 
 109   0.0000       0.307963         8.3801 
 110   0.0000       0.308859         8.4045 
 111   0.0000       0.311110         8.4657 
 112   0.0000       0.341474         9.2920 
 113   0.0000       0.341867         9.3027 
 114   0.0000       0.354624         9.6498 
 115   0.0000       0.364594         9.9211 
 116   0.0000       0.404826        11.0159 
 117   0.0000       0.417351        11.3567 
 118   0.0000       0.428106        11.6494 
 119   0.0000       0.438112        11.9216 
-------
TIMINGS
-------

Total SCF time: 0 days 0 hours 0 min 0 sec 

Total time                  ....       0.135 sec
Sum of individual times     ....       0.108 sec  ( 79.8%)

Fock matrix formation       ....       0.048 sec  ( 35.7%)
Diagonalization             ....       0.024 sec  ( 17.9%)
Density matrix formation    ....       0.006 sec  (  4.2%)
Population analysis         ....       0.000 sec  (  0.0%)
Initial guess               ....       0.003 sec  (  2.2%)
Orbital Transformation      ....       0.000 sec  (  0.0%)
Orbital Orthonormalization  ....       0.000 sec  (  0.0%)
DIIS solution               ....       0.021 sec  ( 15.5%)
SOSCF solution              ....       0.006 sec  (  4.3%)

-------------------------   --------------------
FINAL SINGLE POINT ENERGY       -18.785855248173
-------------------------   --------------------


                            ***************************************
                            *     ORCA property calculations      *
                            ***************************************

                                    ---------------------
                                    Active property flags
                                    ---------------------
   (+) Dipole Moment


------------------------------------------------------------------------------
                       ORCA ELECTRIC PROPERTIES CALCULATION
------------------------------------------------------------------------------

Dipole Moment Calculation                       ... on
Quadrupole Moment Calculation                   ... off
Polarizability Calculation                      ... off
GBWName                                         ... /Users/mattyjones/GoogleDrive/Boise/Code/MorphCT/tests/output_EZ/donor_polymer/chromophores/input_orca/pair/00016-00029.gbw
Electron density file                           ... /Users/mattyjones/GoogleDrive/Boise/Code/MorphCT/tests/output_EZ/donor_polymer/chromophores/input_orca/pair/00016-00029.scfp.tmp

-------------
DIPOLE MOMENT
-------------
                                X             Y             Z
Electronic contribution:     43.44060     -66.93586     -62.85394
Nuclear contribution   :    -27.61774      30.12591      37.46479
                        -----------------------------------------
Total Dipole Moment    :     15.82286     -36.80995     -25.38916
                        -----------------------------------------
Magnitude (a.u.)       :     47.43358
Magnitude (Debye)      :    120.56658


Timings for individual modules:

Sum of individual times         ...        0.225 sec (=   0.004 min)
STO integral calculation        ...        0.049 sec (=   0.001 min)  21.8 %
SCF iterations                  ...        0.176 sec (=   0.003 min)  78.2 %
                             ****ORCA TERMINATED NORMALLY****
TOTAL RUN TIME: 0 days 0 hours 0 minutes 0 seconds 527 msec

