
                                 *****************
                                 * O   R   C   A *
                                 *****************

           --- An Ab Initio, DFT and Semiempirical electronic structure package ---

                  #######################################################
                  #                        -***-                        #
                  #  Department of molecular theory and spectroscopy    #
                  #              Directorship: Frank Neese              #
                  # Max Planck Institute for Chemical Energy Conversion #
                  #                  D-45470 Muelheim/Ruhr              #
                  #                       Germany                       #
                  #                                                     #
                  #                  All rights reserved                #
                  #                        -***-                        #
                  #######################################################


                         Program Version 3.0.3 - RELEASE   -


 With contributions from (in alphabetic order):
   Ute Becker             : Parallelization
   Dmytro Bykov           : SCF Hessian
   Dmitry Ganyushin       : Spin-Orbit,Spin-Spin,Magnetic field MRCI
   Andreas Hansen         : Spin unrestricted coupled pair/coupled cluster methods
   Dimitrios Liakos       : Extrapolation schemes; parallel MDCI
   Robert Izsak           : Overlap fitted RIJCOSX, COSX-SCS-MP3
   Christian Kollmar      : KDIIS, OOCD, Brueckner-CCSD(T), CCSD density
   Simone Kossmann        : Meta GGA functionals, TD-DFT gradient, OOMP2, MP2 Hessian
   Taras Petrenko         : DFT Hessian,TD-DFT gradient, ASA and ECA modules, normal mode analysis, Resonance Raman, ABS, FL, XAS/XES, NRVS
   Christoph Reimann      : Effective Core Potentials
   Michael Roemelt        : Restricted open shell CIS
   Christoph Riplinger    : Improved optimizer, TS searches, QM/MM, DLPNO-CCSD
   Barbara Sandhoefer     : DKH picture change effects
   Igor Schapiro          : Molecular dynamics
   Kantharuban Sivalingam : CASSCF convergence, NEVPT2
   Boris Wezisla          : Elementary symmetry handling
   Frank Wennmohs         : Technical directorship


 We gratefully acknowledge several colleagues who have allowed us to
 interface, adapt or use parts of their codes:
   Stefan Grimme, W. Hujo, H. Kruse, T. Risthaus : VdW corrections, initial TS optimization,
                                                   DFT functionals, gCP
   Ed Valeev                                     : LibInt (2-el integral package), F12 methods
   Garnet Chan, S. Sharma, R. Olivares           : DMRG
   Ulf Ekstrom                                   : XCFun DFT Library
   Mihaly Kallay                                 : mrcc  (arbitrary order and MRCC methods)
   Andreas Klamt, Michael Diedenhofen            : otool_cosmo (COSMO solvation model)
   Frank Weinhold                                : gennbo (NPA and NBO analysis)
   Christopher J. Cramer and Donald G. Truhlar   : smd solvation model


 Your calculation uses the libint2 library for the computation of 2-el integrals
 For citations please refer to: http://libint.valeyev.net

 This ORCA versions uses:
   CBLAS   interface :  Fast vector & matrix operations
   LAPACKE interface :  Fast linear algebra routines
   SCALAPACK package :  Parallel linear algebra routines


leaving
================================================================================
                                        WARNINGS
                       Please study these warnings very carefully!
================================================================================
Now building the actual basis set

WARNING: Direct SCF is incompatible with Method<>HF and Method<>DFT
  ===> : conventional SCF is chosen

WARNING: The NDO methods need Guess=HUECKEL or Guess=HCORE or Guess=MOREAD
  ===> : Guess is set to Hueckel

WARNING: The NDO methods need %rel::SOCType==1
  ===> : %rel::SOCType is set to 1

WARNING: The NDO methods cannot have frozencore=1
  ===> : %method FrozenCore=0 end


INFO   : the flag for use of LIBINT has been found!

================================================================================
                                       INPUT FILE
================================================================================
NAME = /Users/mattyjones/GoogleDrive/Boise/Code/MorphCT/tests/output_EZ/donor_polymer/chromophores/input_orca/pair/00016-00028.inp
|  1> # ================================================================
|  2> # Orca input file made by Matty Jones
|  3> # ================================================================
|  4> ! ZINDO/S 
|  5> ! NOPOP
|  6> ! NOMOPRINT
|  7> * xyz 0   1
|  8>  C  10.60873  21.48981  -14.48785
|  9>  C  11.72797  21.94760  -13.79097
| 10>  C  11.50390  23.15118  -13.05243
| 11>  C  10.20116  23.64628  -13.16671
| 12>  S  9.40628  22.58376  -14.16152
| 13>  H  12.74114  21.42255  -13.83154
| 14>  C  12.76269  23.73223  -12.22512
| 15>  C  13.30509  25.32842  -12.45100
| 16>  C  12.63057  26.60255  -11.59057
| 17>  H  11.67453  26.92819  -12.14544
| 18>  H  13.39037  27.48064  -11.68480
| 19>  H  14.43594  25.32311  -12.21022
| 20>  H  13.16731  25.56547  -13.57423
| 21>  H  12.54946  23.60423  -11.08665
| 22>  H  13.70447  23.07828  -12.46181
| 23>  C  12.33276  26.37210  -10.00800
| 24>  C  13.47675  26.98692  -8.92423
| 25>  C  14.71450  25.95571  -8.44678
| 26>  H  14.53912  24.90007  -8.88444
| 27>  H  14.73337  25.89796  -7.28997
| 28>  H  15.72609  26.37179  -8.82633
| 29>  H  13.95531  27.91880  -9.40612
| 30>  H  12.90290  27.30708  -7.97418
| 31>  H  12.23436  25.24418  -9.77963
| 32>  H  11.32256  26.87762  -9.74596
| 33>  C  -14.88182  -29.03668  9.98652
| 34>  C  -14.13305  -28.06272  10.64881
| 35>  C  -14.91906  -27.12323  11.38625
| 36>  C  -16.29545  -27.35652  11.30584
| 37>  S  -16.46507  -28.69410  10.34017
| 38>  H  -12.99068  -28.05978  10.67779
| 39>  C  -14.24121  -25.92029  12.23053
| 40>  C  -12.93623  -25.13223  11.51428
| 41>  C  -12.15884  -23.85900  12.32770
| 42>  H  -12.03515  -24.14228  13.43804
| 43>  H  -12.80503  -22.90877  12.24157
| 44>  H  -12.13071  -25.93805  11.32986
| 45>  H  -13.29886  -24.71249  10.50319
| 46>  H  -15.03271  -25.08270  12.41858
| 47>  H  -13.87164  -26.31495  13.26166
| 48>  C  -10.70673  -23.63749  11.61796
| 49>  C  -9.76654  -22.30362  12.03772
| 50>  C  -10.01502  -21.02120  10.97690
| 51>  H  -9.27074  -20.17085  11.22361
| 52>  H  -11.10039  -20.63715  11.08682
| 53>  H  -9.84042  -21.38584  9.89185
| 54>  H  -10.03816  -21.96728  13.10381
| 55>  H  -8.65591  -22.60618  11.99390
| 56>  H  -10.86400  -23.59071  10.47069
| 57>  H  -10.05609  -24.57141  11.85204
| 58>  H  10.54158  20.62510  -15.09724
| 59>  H  9.80468  24.51816  -12.71258
| 60>  H  -14.51556  -29.82845  9.38440
| 61>  H  -17.06853  -26.79584  11.76581
| 62> *
| 63> 
| 64>                          ****END OF INPUT****
================================================================================

                       ****************************
                       * Single Point Calculation *
                       ****************************

---------------------------------
CARTESIAN COORDINATES (ANGSTROEM)
---------------------------------
  C     10.608730   21.489810  -14.487850
  C     11.727970   21.947600  -13.790970
  C     11.503900   23.151180  -13.052430
  C     10.201160   23.646280  -13.166710
  S      9.406280   22.583760  -14.161520
  H     12.741140   21.422550  -13.831540
  C     12.762690   23.732230  -12.225120
  C     13.305090   25.328420  -12.451000
  C     12.630570   26.602550  -11.590570
  H     11.674530   26.928190  -12.145440
  H     13.390370   27.480640  -11.684800
  H     14.435940   25.323110  -12.210220
  H     13.167310   25.565470  -13.574230
  H     12.549460   23.604230  -11.086650
  H     13.704470   23.078280  -12.461810
  C     12.332760   26.372100  -10.008000
  C     13.476750   26.986920   -8.924230
  C     14.714500   25.955710   -8.446780
  H     14.539120   24.900070   -8.884440
  H     14.733370   25.897960   -7.289970
  H     15.726090   26.371790   -8.826330
  H     13.955310   27.918800   -9.406120
  H     12.902900   27.307080   -7.974180
  H     12.234360   25.244180   -9.779630
  H     11.322560   26.877620   -9.745960
  C    -14.881820  -29.036680    9.986520
  C    -14.133050  -28.062720   10.648810
  C    -14.919060  -27.123230   11.386250
  C    -16.295450  -27.356520   11.305840
  S    -16.465070  -28.694100   10.340170
  H    -12.990680  -28.059780   10.677790
  C    -14.241210  -25.920290   12.230530
  C    -12.936230  -25.132230   11.514280
  C    -12.158840  -23.859000   12.327700
  H    -12.035150  -24.142280   13.438040
  H    -12.805030  -22.908770   12.241570
  H    -12.130710  -25.938050   11.329860
  H    -13.298860  -24.712490   10.503190
  H    -15.032710  -25.082700   12.418580
  H    -13.871640  -26.314950   13.261660
  C    -10.706730  -23.637490   11.617960
  C     -9.766540  -22.303620   12.037720
  C    -10.015020  -21.021200   10.976900
  H     -9.270740  -20.170850   11.223610
  H    -11.100390  -20.637150   11.086820
  H     -9.840420  -21.385840    9.891850
  H    -10.038160  -21.967280   13.103810
  H     -8.655910  -22.606180   11.993900
  H    -10.864000  -23.590710   10.470690
  H    -10.056090  -24.571410   11.852040
  H     10.541580   20.625100  -15.097240
  H      9.804680   24.518160  -12.712580
  H    -14.515560  -29.828450    9.384400
  H    -17.068530  -26.795840   11.765810

----------------------------
CARTESIAN COORDINATES (A.U.)
----------------------------
  NO LB      ZA    FRAG    MASS        X           Y           Z
   0 C     4.0000    0    12.011         20.047594328714400         40.609855570002253        -27.378068769331005
   1 C     4.0000    0    12.011         22.162651406844422         41.474953296850067        -26.061156421123965
   2 C     4.0000    0    12.011         21.739220472016687         43.749389877115000        -24.665518082177762
   3 C     4.0000    0    12.011         19.277398648312115         44.684993286019413        -24.881475984762282
   4 S     6.0000    0    32.060         17.775293138980793         42.677121474205407        -26.761394440048484
   5 H     1.0000    0     1.008         24.077265233949415         40.482752590234711        -26.137822610377150
   6 C     4.0000    0    12.011         24.117988832135417         44.847415247229947        -23.102128754323374
   7 C     4.0000    0    12.011         25.142976287174307         47.863777204933712        -23.528980093453505
   8 C     4.0000    0    12.011         23.868318215321743         50.271533963946794        -21.903003036043643
   9 H     1.0000    0     1.008         22.061664442247672         50.886904382196910        -22.951555375972529
  10 H     1.0000    0     1.008         25.304132131875111         51.930883584881705        -22.081071929643041
  11 H     1.0000    0     1.008         27.279973085719156         47.853742759162586        -23.073971834927946
  12 H     1.0000    0     1.008         24.882609820442639         48.311736784979743        -25.651577178857870
  13 H     1.0000    0     1.008         23.715042528599390         44.605530302088027        -20.950732242638047
  14 H     1.0000    0     1.008         25.897695110539775         43.611628841952140        -23.549408032961193
  15 C     4.0000    0    12.011         23.305538875378655         49.836046576384639        -18.912379148283886
  16 C     4.0000    0    12.011         25.467366675323227         50.997887998042110        -16.864350656124053
  17 C     4.0000    0    12.011         27.806375197584256         49.049183511481168        -15.962100913483351
  18 H     1.0000    0     1.008         27.474955028217149         47.054313015468537        -16.789158453255325
  19 H     1.0000    0     1.008         27.842034329731352         48.940051827247224        -13.776046824501908
  20 H     1.0000    0     1.008         29.718003257397655         49.835460761283130        -16.679346467613161
  21 H     1.0000    0     1.008         26.371714013972586         52.758885987720646        -17.774990782799364
  22 H     1.0000    0     1.008         24.382947333372520         51.602902717078329        -15.069016342592166
  23 H     1.0000    0     1.008         23.119589823800805         47.704586675412180        -18.480822391080288
  24 H     1.0000    0     1.008         21.396537534891404         50.791340931604516        -18.417195312151161
  25 C     4.0000    0    12.011        -28.122564174311961        -54.871373038308533         18.871787830927261
  26 C     4.0000    0    12.011        -26.707593937015748        -53.030855372914587         20.123334552161964
  27 C     4.0000    0    12.011        -28.192937575539190        -51.255476567356908         21.516894192360851
  28 C     4.0000    0    12.011        -30.793937729007059        -51.696330777139401         21.364941313932242
  29 S     6.0000    0    32.060        -31.114473075842785        -54.223990659349788         19.540089478188509
  30 H     1.0000    0     1.008        -24.548827493408123        -53.025299578080862         20.178098815523001
  31 C     4.0000    0    12.011        -26.911986715660671        -48.982249411817683         23.112352172707887
  32 C     4.0000    0    12.011        -24.445931905416113        -47.493031834719702         21.758835829286788
  33 C     4.0000    0    12.011        -22.976877706167070        -45.086975829227150         23.295976861141014
  34 H     1.0000    0     1.008        -22.743137480662352        -45.622297448444357         25.394215376679139
  35 H     1.0000    0     1.008        -24.197999836645646        -43.291301364991156         23.133214749226376
  36 H     1.0000    0     1.008        -22.923719710019867        -49.015810947956119         21.410332535669031
  37 H     1.0000    0     1.008        -25.131203293359977        -46.699838187267588         19.848152632540351
  38 H     1.0000    0     1.008        -28.407704950659340        -47.399433699306577         23.467715172191777
  39 H     1.0000    0     1.008        -26.213600628347390        -49.728048727831037         25.060905481178104
  40 C     4.0000    0    12.011        -20.232787489838682        -44.668382593302248         21.954762634851747
  41 C     4.0000    0    12.011        -18.456085875987263        -42.147733595048706         22.747994076826529
  42 C     4.0000    0    12.011        -18.925645025744014        -39.724311006385413         20.743334799440188
  43 H     1.0000    0     1.008        -17.519159658789103        -38.117382388405481         21.209549133939902
  44 H     1.0000    0     1.008        -20.976697079718125        -38.998561684652955         20.951053496080810
  45 H     1.0000    0     1.008        -18.595698842761362        -40.413380743858461         18.692887457828935
  46 H     1.0000    0     1.008        -18.969373288482952        -41.512143107165627         24.762612210938634
  47 H     1.0000    0     1.008        -16.357299339870302        -42.719489134127919         22.665186277638099
  48 H     1.0000    0     1.008        -20.529984718920481        -44.579981204757416         19.786736533187909
  49 H     1.0000    0     1.008        -19.003256078064158        -46.433235624293985         22.397109728280032
  50 H     1.0000    0     1.008         19.920699218821589         38.975790484739207        -28.529648978081276
  51 H     1.0000    0     1.008         18.528160030735016         46.332607707662682        -24.023294655564627
  52 H     1.0000    0     1.008        -27.430433080501967        -56.367601499363360         17.733945931170592
  53 H     1.0000    0     1.008        -32.254847208618898        -50.636799128372431         22.234158643752004

--------------------------------
INTERNAL COORDINATES (ANGSTROEM)
--------------------------------
 C      0   0   0   0.000000     0.000     0.000
 C      1   0   0   1.395676     0.000     0.000
 C      2   1   0   1.429774   114.102     0.000
 C      3   2   1   1.398326   113.693     0.000
 S      1   2   3   1.658042   105.480     0.000
 H      2   1   3   1.141857   122.888   181.643
 C      3   2   1   1.614501   116.453   180.042
 C      7   3   2   1.700894   121.220   125.124
 C      8   7   3   1.678906   121.065    86.481
 H      9   8   7   1.152360   107.518   276.378
 H      9   8   7   1.164997   105.577   162.628
 H      8   7   3   1.156211   106.256   208.348
 H      8   7   3   1.156210   106.464   324.040
 H      7   3   2   1.165318   108.568   249.371
 H      7   3   2   1.170736   108.819     4.855
 C      9   8   7   1.626753   117.685    42.385
 C     16   9   8   1.691530   116.615    99.036
 C     17  16   9   1.680291   117.205   268.292
 H     18  17  16   1.156149   109.941   355.038
 H     18  17  16   1.158404   109.047   234.890
 H     18  17  16   1.157798   109.263   115.440
 H     17  16   9   1.153099   107.858    30.341
 H     17  16   9   1.155163   106.960   147.484
 H     16   9   8   1.155006   110.260   337.312
 H     16   9   8   1.159620   108.515   219.373
 C      1   2   3  61.657839   113.711   252.179
 C     26   1   2   1.395666    52.750    26.423
 C     27  26   1   1.429780   114.102   101.167
 C     28  27  26   1.398335   113.693     0.000
 S     26   1   2   1.658044   108.066   122.429
 H     27  26   1   1.142741   123.377   276.246
 C     28  27  26   1.618442   121.817   179.659
 C     32  28  27   1.684347   116.771    40.687
 C     33  32  28   1.699147   120.099   180.136
 H     34  33  32   1.152563   109.033    42.286
 H     34  33  32   1.152353   109.000   282.721
 H     33  32  28   1.154218   106.380   300.674
 H     33  32  28   1.153250   107.427    57.839
 H     32  28  27   1.167644   109.468   159.692
 H     32  28  27   1.164288   110.060   278.740
 C     34  33  32   1.631386   107.501   162.598
 C     41  34  33   1.685042   119.719   171.248
 C     42  41  34   1.682760   111.336   265.325
 H     43  42  41   1.156682   109.317   186.276
 H     43  42  41   1.156549   109.373    65.973
 H     43  42  41   1.157921   109.176   306.078
 H     42  41  34   1.150413   109.302    25.872
 H     42  41  34   1.151938   108.697   145.772
 H     41  34  33   1.158944   108.383    48.426
 H     41  34  33   1.162038   107.555   291.980
 H      1   2   3   1.059995   127.260   180.000
 H      4   3   2   1.060002   127.206   180.000
 H     26   1   2   1.059997   104.110   260.045
 H     29  28  27   1.059994   127.206   180.000

---------------------------
INTERNAL COORDINATES (A.U.)
---------------------------
 C      0   0   0   0.000000     0.000     0.000
 C      1   0   0   2.637445     0.000     0.000
 C      2   1   0   2.701881   114.102     0.000
 C      3   2   1   2.642453   113.693     0.000
 S      1   2   3   3.133246   105.480     0.000
 H      2   1   3   2.157797   122.888   181.643
 C      3   2   1   3.050965   116.453   180.042
 C      7   3   2   3.214225   121.220   125.124
 C      8   7   3   3.172672   121.065    86.481
 H      9   8   7   2.177646   107.518   276.378
 H      9   8   7   2.201525   105.577   162.628
 H      8   7   3   2.184923   106.256   208.348
 H      8   7   3   2.184920   106.464   324.040
 H      7   3   2   2.202131   108.568   249.371
 H      7   3   2   2.212370   108.819     4.855
 C      9   8   7   3.074118   117.685    42.385
 C     16   9   8   3.196529   116.615    99.036
 C     17  16   9   3.175290   117.205   268.292
 H     18  17  16   2.184805   109.941   355.038
 H     18  17  16   2.189067   109.047   234.890
 H     18  17  16   2.187920   109.263   115.440
 H     17  16   9   2.179042   107.858    30.341
 H     17  16   9   2.182941   106.960   147.484
 H     16   9   8   2.182645   110.260   337.312
 H     16   9   8   2.191365   108.515   219.373
 C      1   2   3 116.516430   113.711   252.179
 C     26   1   2   2.637426    52.750    26.423
 C     27  26   1   2.701893   114.102   101.167
 C     28  27  26   2.642469   113.693     0.000
 S     26   1   2   3.133249   108.066   122.429
 H     27  26   1   2.159468   123.377   276.246
 C     28  27  26   3.058412   121.817   179.659
 C     32  28  27   3.182955   116.771    40.687
 C     33  32  28   3.210923   120.099   180.136
 H     34  33  32   2.178029   109.033    42.286
 H     34  33  32   2.177631   109.000   282.721
 H     33  32  28   2.181156   106.380   300.674
 H     33  32  28   2.179326   107.427    57.839
 H     32  28  27   2.206527   109.468   159.692
 H     32  28  27   2.200186   110.060   278.740
 C     34  33  32   3.082873   107.501   162.598
 C     41  34  33   3.184267   119.719   171.248
 C     42  41  34   3.179956   111.336   265.325
 H     43  42  41   2.185813   109.317   186.276
 H     43  42  41   2.185560   109.373    65.973
 H     43  42  41   2.188154   109.176   306.078
 H     42  41  34   2.173965   109.302    25.872
 H     42  41  34   2.176848   108.697   145.772
 H     41  34  33   2.190086   108.383    48.426
 H     41  34  33   2.195934   107.555   291.980
 H      1   2   3   2.003100   127.260   180.000
 H      4   3   2   2.003114   127.206   180.000
 H     26   1   2   2.003105   104.110   260.045
 H     29  28  27   2.003098   127.206   180.000

----------------------------
SLATER BASIS SET DIM= 120
----------------------------
  0 C     2 shells
 l=0 nsto= 1
    2       1.625000000000        1.000000000000
 l=1 nsto= 1
    2       1.625000000000        1.000000000000
  1 C     2 shells
 l=0 nsto= 1
    2       1.625000000000        1.000000000000
 l=1 nsto= 1
    2       1.625000000000        1.000000000000
  2 C     2 shells
 l=0 nsto= 1
    2       1.625000000000        1.000000000000
 l=1 nsto= 1
    2       1.625000000000        1.000000000000
  3 C     2 shells
 l=0 nsto= 1
    2       1.625000000000        1.000000000000
 l=1 nsto= 1
    2       1.625000000000        1.000000000000
  4 S     2 shells
 l=0 nsto= 1
    3       1.925000000000        1.000000000000
 l=1 nsto= 1
    3       1.925000000000        1.000000000000
  5 H     1 shells
 l=0 nsto= 1
    1       1.200000000000        1.000000000000
  6 C     2 shells
 l=0 nsto= 1
    2       1.625000000000        1.000000000000
 l=1 nsto= 1
    2       1.625000000000        1.000000000000
  7 C     2 shells
 l=0 nsto= 1
    2       1.625000000000        1.000000000000
 l=1 nsto= 1
    2       1.625000000000        1.000000000000
  8 C     2 shells
 l=0 nsto= 1
    2       1.625000000000        1.000000000000
 l=1 nsto= 1
    2       1.625000000000        1.000000000000
  9 H     1 shells
 l=0 nsto= 1
    1       1.200000000000        1.000000000000
 10 H     1 shells
 l=0 nsto= 1
    1       1.200000000000        1.000000000000
 11 H     1 shells
 l=0 nsto= 1
    1       1.200000000000        1.000000000000
 12 H     1 shells
 l=0 nsto= 1
    1       1.200000000000        1.000000000000
 13 H     1 shells
 l=0 nsto= 1
    1       1.200000000000        1.000000000000
 14 H     1 shells
 l=0 nsto= 1
    1       1.200000000000        1.000000000000
 15 C     2 shells
 l=0 nsto= 1
    2       1.625000000000        1.000000000000
 l=1 nsto= 1
    2       1.625000000000        1.000000000000
 16 C     2 shells
 l=0 nsto= 1
    2       1.625000000000        1.000000000000
 l=1 nsto= 1
    2       1.625000000000        1.000000000000
 17 C     2 shells
 l=0 nsto= 1
    2       1.625000000000        1.000000000000
 l=1 nsto= 1
    2       1.625000000000        1.000000000000
 18 H     1 shells
 l=0 nsto= 1
    1       1.200000000000        1.000000000000
 19 H     1 shells
 l=0 nsto= 1
    1       1.200000000000        1.000000000000
 20 H     1 shells
 l=0 nsto= 1
    1       1.200000000000        1.000000000000
 21 H     1 shells
 l=0 nsto= 1
    1       1.200000000000        1.000000000000
 22 H     1 shells
 l=0 nsto= 1
    1       1.200000000000        1.000000000000
 23 H     1 shells
 l=0 nsto= 1
    1       1.200000000000        1.000000000000
 24 H     1 shells
 l=0 nsto= 1
    1       1.200000000000        1.000000000000
 25 C     2 shells
 l=0 nsto= 1
    2       1.625000000000        1.000000000000
 l=1 nsto= 1
    2       1.625000000000        1.000000000000
 26 C     2 shells
 l=0 nsto= 1
    2       1.625000000000        1.000000000000
 l=1 nsto= 1
    2       1.625000000000        1.000000000000
 27 C     2 shells
 l=0 nsto= 1
    2       1.625000000000        1.000000000000
 l=1 nsto= 1
    2       1.625000000000        1.000000000000
 28 C     2 shells
 l=0 nsto= 1
    2       1.625000000000        1.000000000000
 l=1 nsto= 1
    2       1.625000000000        1.000000000000
 29 S     2 shells
 l=0 nsto= 1
    3       1.925000000000        1.000000000000
 l=1 nsto= 1
    3       1.925000000000        1.000000000000
 30 H     1 shells
 l=0 nsto= 1
    1       1.200000000000        1.000000000000
 31 C     2 shells
 l=0 nsto= 1
    2       1.625000000000        1.000000000000
 l=1 nsto= 1
    2       1.625000000000        1.000000000000
 32 C     2 shells
 l=0 nsto= 1
    2       1.625000000000        1.000000000000
 l=1 nsto= 1
    2       1.625000000000        1.000000000000
 33 C     2 shells
 l=0 nsto= 1
    2       1.625000000000        1.000000000000
 l=1 nsto= 1
    2       1.625000000000        1.000000000000
 34 H     1 shells
 l=0 nsto= 1
    1       1.200000000000        1.000000000000
 35 H     1 shells
 l=0 nsto= 1
    1       1.200000000000        1.000000000000
 36 H     1 shells
 l=0 nsto= 1
    1       1.200000000000        1.000000000000
 37 H     1 shells
 l=0 nsto= 1
    1       1.200000000000        1.000000000000
 38 H     1 shells
 l=0 nsto= 1
    1       1.200000000000        1.000000000000
 39 H     1 shells
 l=0 nsto= 1
    1       1.200000000000        1.000000000000
 40 C     2 shells
 l=0 nsto= 1
    2       1.625000000000        1.000000000000
 l=1 nsto= 1
    2       1.625000000000        1.000000000000
 41 C     2 shells
 l=0 nsto= 1
    2       1.625000000000        1.000000000000
 l=1 nsto= 1
    2       1.625000000000        1.000000000000
 42 C     2 shells
 l=0 nsto= 1
    2       1.625000000000        1.000000000000
 l=1 nsto= 1
    2       1.625000000000        1.000000000000
 43 H     1 shells
 l=0 nsto= 1
    1       1.200000000000        1.000000000000
 44 H     1 shells
 l=0 nsto= 1
    1       1.200000000000        1.000000000000
 45 H     1 shells
 l=0 nsto= 1
    1       1.200000000000        1.000000000000
 46 H     1 shells
 l=0 nsto= 1
    1       1.200000000000        1.000000000000
 47 H     1 shells
 l=0 nsto= 1
    1       1.200000000000        1.000000000000
 48 H     1 shells
 l=0 nsto= 1
    1       1.200000000000        1.000000000000
 49 H     1 shells
 l=0 nsto= 1
    1       1.200000000000        1.000000000000
 50 H     1 shells
 l=0 nsto= 1
    1       1.200000000000        1.000000000000
 51 H     1 shells
 l=0 nsto= 1
    1       1.200000000000        1.000000000000
 52 H     1 shells
 l=0 nsto= 1
    1       1.200000000000        1.000000000000
 53 H     1 shells
 l=0 nsto= 1
    1       1.200000000000        1.000000000000
------------------------------------------------------------------------------
                           ORCA NDO INTEGRAL CALCULATION
------------------------------------------------------------------------------

--------------
NDO PARAMETERS
--------------

Gamma integral treatment              ... Mataga-Nishimoto
Nuclear repulsuion treatment          ... Direct (ZA*ZB/RAB)
Interaction factors:
s-s (sigma) =    1.0000
s-p (sigma) =    1.0000
s-d (sigma) =    1.0000
p-p (sigma) =    1.2670  p-p(pi) =    0.5850
p-d (sigma) =    1.0000  p-d(pi) =    1.0000
d-d (sigma) =    1.0000  d-d(pi) =    1.0000 d-d (delta) =    1.0000

fGamma parameter for Mataga-Nishimoto gamma integrals:    1.2000

--------------------------
Parameters for Element H :
--------------------------
 One-electron parameters (in eV)
  U(s)  =   -13.060000 Beta(s) =    12.000000 Neff(s) =     1.000000
 One-center electron repulsion parameters (in eV)
  G(s,s)=    12.850000
--------------------------
Parameters for Element C :
--------------------------
 One-electron parameters (in eV)
  U(s)  =   -50.870766 Beta(s) =    17.000000 Neff(s) =     2.000000
  U(p)  =   -41.599980 Beta(p) =    17.000000 Neff(p) =     2.000000 
 One-center electron repulsion parameters (in eV)
  G(s,s)=    11.110000
  G(s,p)=    11.110000 G(p,p)  =    11.110000
 Slater-Condon parameters (in eV)
 F2(p,p)=     4.5098 G1(s,p)=    6.8977
--------------------------
Parameters for Element S :
--------------------------
 One-electron parameters (in eV)
  U(s)  =   -69.509597 Beta(s) =    15.000000 Neff(s) =     2.000000
  U(p)  =   -60.725746 Beta(p) =    15.000000 Neff(p) =     4.000000 
 One-center electron repulsion parameters (in eV)
  G(s,s)=    10.090000
  G(s,p)=    10.090000 G(p,p)  =    10.090000
 Slater-Condon parameters (in eV)
 F2(p,p)=     4.5377 G1(s,p)=    3.0756

 Number of atoms                    ....   54
 Number of basis functions          ....  120

 Overlap integrals                  .... done
 One electron matrix                .... done
 Nuclear repulsion                  .... done
 Integral list                      .... done
 Electron-electron repulsion        .... done
-------------------------------------------------------------------------------
                                 ORCA SCF
-------------------------------------------------------------------------------

------------
SCF SETTINGS
------------
Hamiltonian:
 ZDO-Hamiltonian        Method          .... INDO


General Settings:
 Integral files         IntName         .... /Users/mattyjones/GoogleDrive/Boise/Code/MorphCT/tests/output_EZ/donor_polymer/chromophores/input_orca/pair/00016-00028
 Hartree-Fock type      HFTyp           .... RHF
 Total Charge           Charge          ....    0
 Multiplicity           Mult            ....    1
 Number of Electrons    NEL             ....  124
 Basis Dimension        Dim             ....  120
 Nuclear Repulsion      ENuc            ....    621.8531605727 Eh

Convergence Acceleration:
 DIIS                   CNVDIIS         .... on
   Start iteration      DIISMaxIt       ....    12
   Startup error        DIISStart       ....  0.200000
   # of expansion vecs  DIISMaxEq       ....     5
   Bias factor          DIISBfac        ....   1.050
   Max. coefficient     DIISMaxC        ....  10.000
 Newton-Raphson         CNVNR           .... off
 SOSCF                  CNVSOSCF        .... on
   Start iteration      SOSCFMaxIt      ....   150
   Startup grad/error   SOSCFStart      ....  0.003300
 Level Shifting         CNVShift        .... on
   Level shift para.    LevelShift      ....    0.2500
   Turn off err/grad.   ShiftErr        ....    0.0010
 Zerner damping         CNVZerner       .... off
 Static damping         CNVDamp         .... on
   Fraction old density DampFac         ....    0.7000
   Max. Damping (<1)    DampMax         ....    0.9800
   Min. Damping (>=0)   DampMin         ....    0.0000
   Turn off err/grad.   DampErr         ....    0.1000
 Fernandez-Rico         CNVRico         .... off

SCF Procedure:
 Maximum # iterations   MaxIter         ....   125
 SCF integral mode      SCFMode         .... Conventional
 Integral Buffer length BufferLength    .... 1048576
 Integral index format  IndFormat       ....     0
 Integral value format  ValFormat       ....     0
 Integral Storage       Thresh          ....  1.000e-08 Eh

Convergence Tolerance:
 Convergence Check Mode ConvCheckMode   .... Total+1el-Energy
 Energy Change          TolE            ....  1.000e-06 Eh
 1-El. energy change                    ....  1.000e-03 Eh
 Orbital Gradient       TolG            ....  5.000e-05
 Orbital Rotation angle TolX            ....  5.000e-05
 DIIS Error             TolErr          ....  1.000e-06


Diagonalization of the overlap matrix:
Smallest eigenvalue                        ... 1.697e-01
Time for diagonalization                   ...    0.003 sec
Threshold for overlap eigenvalues          ... 1.000e-08
Number of eigenvalues below threshold      ... 0
Time for construction of square roots      ...    0.001 sec
Total time needed                          ...    0.004 sec

-------------------------------
INITIAL GUESS: EXTENDED HUECKEL
-------------------------------
EHT matrix was read from disk
EHT matrix was diagonalized
Initial density was built
                      ------------------
                      INITIAL GUESS DONE
                      ------------------

 InCore treatment chosen:
   Memory dedicated               ...    1024 MB
   Memory needed                  ...      0 MB
   Number of tiny    integrals    ...       0
   Number of small   integrals    ...       0
   Number of regular integrals    ...    7392

--------------
SCF ITERATIONS
--------------
ITER       Energy         Delta-E        Max-DP      RMS-DP      [F,P]     Damp
  0    -19.1790637264   0.000000000000 0.04139316  0.00144249  0.1108555 0.7000
  1    -19.2207922165  -0.041728490091 0.03926135  0.00135875  0.0758145 0.7000
                               ***Turning on DIIS***
  2    -19.2516521772  -0.030859960705 0.10011388  0.00348740  0.0461187 0.0000
  3    -19.3336126974  -0.081960520174 0.01846610  0.00071905  0.0210939 0.0000
  4    -19.3170619324   0.016550764945 0.01110688  0.00049595  0.0068483 0.0000
  5    -19.3343452304  -0.017283297914 0.00781014  0.00033546  0.0039421 0.0000
  6    -19.3364962060  -0.002150975615 0.00585393  0.00023845  0.0021265 0.0000
                      *** Initiating the SOSCF procedure ***
                           *** Shutting down DIIS ***
                      *** Re-Reading the Fockian *** 
                      *** Removing any level shift *** 
ITER      Energy       Delta-E        Grad      Rot      Max-DP    RMS-DP
  7    -19.33254654   0.0039496662  0.003018  0.003018  0.003479  0.000134
  8    -19.33075526   0.0017912838  0.000800  0.002194  0.001721  0.000062
  9    -19.33076954  -0.0000142879  0.000351  0.002137  0.001925  0.000065
 10    -19.33077475  -0.0000052104  0.000029  0.000077  0.000121  0.000004
                 **** Energy Check signals convergence ****
              ***Rediagonalizing the Fockian in SOSCF/NRSCF***

               *****************************************************
               *                     SUCCESS                       *
               *           SCF CONVERGED AFTER  11 CYCLES          *
               *****************************************************


----------------
TOTAL SCF ENERGY
----------------

Total Energy       :          -19.33077480 Eh            -526.01712 eV

Components:
Nuclear Repulsion  :          621.85316057 Eh           16921.48477 eV
Electronic Energy  :         -641.18393537 Eh          -17447.50190 eV

One Electron Energy:        -1191.88895736 Eh          -32432.94739 eV
Two Electron Energy:          550.70502199 Eh           14985.44549 eV


---------------
SCF CONVERGENCE
---------------

  Last Energy change         ...   -4.7472e-08  Tolerance :   1.0000e-06
  Last MAX-Density change    ...    4.6136e-05  Tolerance :   1.0000e-05
  Last RMS-Density change    ...    1.3540e-06  Tolerance :   1.0000e-06
  Last Orbital Gradient      ...    1.0207e-05  Tolerance :   5.0000e-05
  Last Orbital Rotation      ...    2.1181e-05  Tolerance :   5.0000e-05

             **** THE GBW FILE WAS UPDATED (/Users/mattyjones/GoogleDrive/Boise/Code/MorphCT/tests/output_EZ/donor_polymer/chromophores/input_orca/pair/00016-00028.gbw) ****
             **** DENSITY FILE WAS UPDATED (/Users/mattyjones/GoogleDrive/Boise/Code/MorphCT/tests/output_EZ/donor_polymer/chromophores/input_orca/pair/00016-00028.scfp.tmp) ****
             **** ENERGY FILE WAS UPDATED (/Users/mattyjones/GoogleDrive/Boise/Code/MorphCT/tests/output_EZ/donor_polymer/chromophores/input_orca/pair/00016-00028.en.tmp) ****
----------------
ORBITAL ENERGIES
----------------

  NO   OCC          E(Eh)            E(eV) 
   0   2.0000      -1.557232       -42.3744 
   1   2.0000      -1.557091       -42.3706 
   2   2.0000      -1.405135       -38.2357 
   3   2.0000      -1.404368       -38.2148 
   4   2.0000      -1.297176       -35.2980 
   5   2.0000      -1.283566       -34.9276 
   6   2.0000      -1.186809       -32.2947 
   7   2.0000      -1.177770       -32.0488 
   8   2.0000      -1.114047       -30.3147 
   9   2.0000      -1.113944       -30.3120 
  10   2.0000      -1.064529       -28.9673 
  11   2.0000      -1.023719       -27.8568 
  12   2.0000      -0.962027       -26.1781 
  13   2.0000      -0.953005       -25.9326 
  14   2.0000      -0.904046       -24.6003 
  15   2.0000      -0.897736       -24.4286 
  16   2.0000      -0.868782       -23.6408 
  17   2.0000      -0.846022       -23.0214 
  18   2.0000      -0.833266       -22.6743 
  19   2.0000      -0.828438       -22.5429 
  20   2.0000      -0.783434       -21.3183 
  21   2.0000      -0.770233       -20.9591 
  22   2.0000      -0.726325       -19.7643 
  23   2.0000      -0.723819       -19.6961 
  24   2.0000      -0.715322       -19.4649 
  25   2.0000      -0.697641       -18.9838 
  26   2.0000      -0.679080       -18.4787 
  27   2.0000      -0.664950       -18.0942 
  28   2.0000      -0.641012       -17.4428 
  29   2.0000      -0.639376       -17.3983 
  30   2.0000      -0.638015       -17.3613 
  31   2.0000      -0.617652       -16.8072 
  32   2.0000      -0.590941       -16.0803 
  33   2.0000      -0.579280       -15.7630 
  34   2.0000      -0.576792       -15.6953 
  35   2.0000      -0.575370       -15.6566 
  36   2.0000      -0.567453       -15.4412 
  37   2.0000      -0.566531       -15.4161 
  38   2.0000      -0.559750       -15.2316 
  39   2.0000      -0.543726       -14.7955 
  40   2.0000      -0.534529       -14.5453 
  41   2.0000      -0.528991       -14.3946 
  42   2.0000      -0.520476       -14.1629 
  43   2.0000      -0.517882       -14.0923 
  44   2.0000      -0.512372       -13.9423 
  45   2.0000      -0.505084       -13.7440 
  46   2.0000      -0.495230       -13.4759 
  47   2.0000      -0.491348       -13.3703 
  48   2.0000      -0.488869       -13.3028 
  49   2.0000      -0.483414       -13.1544 
  50   2.0000      -0.477663       -12.9979 
  51   2.0000      -0.474747       -12.9185 
  52   2.0000      -0.472481       -12.8569 
  53   2.0000      -0.469259       -12.7692 
  54   2.0000      -0.467001       -12.7077 
  55   2.0000      -0.465719       -12.6729 
  56   2.0000      -0.438480       -11.9316 
  57   2.0000      -0.437116       -11.8945 
  58   2.0000      -0.356982        -9.7140 
  59   2.0000      -0.356967        -9.7136 
  60   2.0000      -0.304793        -8.2938 
  61   2.0000      -0.304644        -8.2898 
  62   0.0000       0.007643         0.2080 
  63   0.0000       0.007888         0.2146 
  64   0.0000       0.069253         1.8845 
  65   0.0000       0.070202         1.9103 
  66   0.0000       0.075045         2.0421 
  67   0.0000       0.078237         2.1289 
  68   0.0000       0.084017         2.2862 
  69   0.0000       0.091289         2.4841 
  70   0.0000       0.104762         2.8507 
  71   0.0000       0.104954         2.8560 
  72   0.0000       0.107629         2.9287 
  73   0.0000       0.108952         2.9647 
  74   0.0000       0.122590         3.3358 
  75   0.0000       0.124246         3.3809 
  76   0.0000       0.141029         3.8376 
  77   0.0000       0.144347         3.9279 
  78   0.0000       0.154444         4.2026 
  79   0.0000       0.159850         4.3497 
  80   0.0000       0.165719         4.5094 
  81   0.0000       0.166375         4.5273 
  82   0.0000       0.167621         4.5612 
  83   0.0000       0.171288         4.6610 
  84   0.0000       0.204220         5.5571 
  85   0.0000       0.204574         5.5667 
  86   0.0000       0.229509         6.2453 
  87   0.0000       0.230458         6.2711 
  88   0.0000       0.233809         6.3623 
  89   0.0000       0.235595         6.4109 
  90   0.0000       0.237109         6.4521 
  91   0.0000       0.238184         6.4813 
  92   0.0000       0.239228         6.5097 
  93   0.0000       0.240113         6.5338 
  94   0.0000       0.240744         6.5510 
  95   0.0000       0.242497         6.5987 
  96   0.0000       0.242734         6.6051 
  97   0.0000       0.242803         6.6070 
  98   0.0000       0.244650         6.6573 
  99   0.0000       0.244775         6.6607 
 100   0.0000       0.250434         6.8147 
 101   0.0000       0.255319         6.9476 
 102   0.0000       0.257222         6.9994 
 103   0.0000       0.260323         7.0838 
 104   0.0000       0.266974         7.2647 
 105   0.0000       0.267058         7.2670 
 106   0.0000       0.282313         7.6821 
 107   0.0000       0.287119         7.8129 
 108   0.0000       0.299211         8.1419 
 109   0.0000       0.307958         8.3800 
 110   0.0000       0.310321         8.4443 
 111   0.0000       0.311104         8.4656 
 112   0.0000       0.339527         9.2390 
 113   0.0000       0.341470         9.2919 
 114   0.0000       0.354190         9.6380 
 115   0.0000       0.354620         9.6497 
 116   0.0000       0.413818        11.2605 
 117   0.0000       0.417350        11.3567 
 118   0.0000       0.428100        11.6492 
 119   0.0000       0.429102        11.6765 
-------
TIMINGS
-------

Total SCF time: 0 days 0 hours 0 min 0 sec 

Total time                  ....       0.361 sec
Sum of individual times     ....       0.321 sec  ( 88.9%)

Fock matrix formation       ....       0.051 sec  ( 14.1%)
Diagonalization             ....       0.024 sec  (  6.8%)
Density matrix formation    ....       0.006 sec  (  1.6%)
Population analysis         ....       0.000 sec  (  0.0%)
Initial guess               ....       0.003 sec  (  0.9%)
Orbital Transformation      ....       0.000 sec  (  0.0%)
Orbital Orthonormalization  ....       0.000 sec  (  0.0%)
DIIS solution               ....       0.014 sec  (  3.9%)
SOSCF solution              ....       0.223 sec  ( 61.7%)

-------------------------   --------------------
FINAL SINGLE POINT ENERGY       -19.330774801646
-------------------------   --------------------


                            ***************************************
                            *     ORCA property calculations      *
                            ***************************************

                                    ---------------------
                                    Active property flags
                                    ---------------------
   (+) Dipole Moment


------------------------------------------------------------------------------
                       ORCA ELECTRIC PROPERTIES CALCULATION
------------------------------------------------------------------------------

Dipole Moment Calculation                       ... on
Quadrupole Moment Calculation                   ... off
Polarizability Calculation                      ... off
GBWName                                         ... /Users/mattyjones/GoogleDrive/Boise/Code/MorphCT/tests/output_EZ/donor_polymer/chromophores/input_orca/pair/00016-00028.gbw
Electron density file                           ... /Users/mattyjones/GoogleDrive/Boise/Code/MorphCT/tests/output_EZ/donor_polymer/chromophores/input_orca/pair/00016-00028.scfp.tmp

-------------
DIPOLE MOMENT
-------------
                                X             Y             Z
Electronic contribution:   -185.06181    -166.52563    -102.27152
Nuclear contribution   :     99.41259      90.75845      54.68480
                        -----------------------------------------
Total Dipole Moment    :    -85.64922     -75.76718     -47.58672
                        -----------------------------------------
Magnitude (a.u.)       :    123.85859
Magnitude (Debye)      :    314.82351


Timings for individual modules:

Sum of individual times         ...        0.454 sec (=   0.008 min)
STO integral calculation        ...        0.048 sec (=   0.001 min)  10.5 %
SCF iterations                  ...        0.406 sec (=   0.007 min)  89.5 %
                             ****ORCA TERMINATED NORMALLY****
TOTAL RUN TIME: 0 days 0 hours 0 minutes 0 seconds 854 msec

