
                                 *****************
                                 * O   R   C   A *
                                 *****************

           --- An Ab Initio, DFT and Semiempirical electronic structure package ---

                  #######################################################
                  #                        -***-                        #
                  #  Department of molecular theory and spectroscopy    #
                  #              Directorship: Frank Neese              #
                  # Max Planck Institute for Chemical Energy Conversion #
                  #                  D-45470 Muelheim/Ruhr              #
                  #                       Germany                       #
                  #                                                     #
                  #                  All rights reserved                #
                  #                        -***-                        #
                  #######################################################


                         Program Version 3.0.3 - RELEASE   -


 With contributions from (in alphabetic order):
   Ute Becker             : Parallelization
   Dmytro Bykov           : SCF Hessian
   Dmitry Ganyushin       : Spin-Orbit,Spin-Spin,Magnetic field MRCI
   Andreas Hansen         : Spin unrestricted coupled pair/coupled cluster methods
   Dimitrios Liakos       : Extrapolation schemes; parallel MDCI
   Robert Izsak           : Overlap fitted RIJCOSX, COSX-SCS-MP3
   Christian Kollmar      : KDIIS, OOCD, Brueckner-CCSD(T), CCSD density
   Simone Kossmann        : Meta GGA functionals, TD-DFT gradient, OOMP2, MP2 Hessian
   Taras Petrenko         : DFT Hessian,TD-DFT gradient, ASA and ECA modules, normal mode analysis, Resonance Raman, ABS, FL, XAS/XES, NRVS
   Christoph Reimann      : Effective Core Potentials
   Michael Roemelt        : Restricted open shell CIS
   Christoph Riplinger    : Improved optimizer, TS searches, QM/MM, DLPNO-CCSD
   Barbara Sandhoefer     : DKH picture change effects
   Igor Schapiro          : Molecular dynamics
   Kantharuban Sivalingam : CASSCF convergence, NEVPT2
   Boris Wezisla          : Elementary symmetry handling
   Frank Wennmohs         : Technical directorship


 We gratefully acknowledge several colleagues who have allowed us to
 interface, adapt or use parts of their codes:
   Stefan Grimme, W. Hujo, H. Kruse, T. Risthaus : VdW corrections, initial TS optimization,
                                                   DFT functionals, gCP
   Ed Valeev                                     : LibInt (2-el integral package), F12 methods
   Garnet Chan, S. Sharma, R. Olivares           : DMRG
   Ulf Ekstrom                                   : XCFun DFT Library
   Mihaly Kallay                                 : mrcc  (arbitrary order and MRCC methods)
   Andreas Klamt, Michael Diedenhofen            : otool_cosmo (COSMO solvation model)
   Frank Weinhold                                : gennbo (NPA and NBO analysis)
   Christopher J. Cramer and Donald G. Truhlar   : smd solvation model


 Your calculation uses the libint2 library for the computation of 2-el integrals
 For citations please refer to: http://libint.valeyev.net

 This ORCA versions uses:
   CBLAS   interface :  Fast vector & matrix operations
   LAPACKE interface :  Fast linear algebra routines
   SCALAPACK package :  Parallel linear algebra routines


leaving
================================================================================
                                        WARNINGS
                       Please study these warnings very carefully!
================================================================================
Now building the actual basis set

WARNING: Direct SCF is incompatible with Method<>HF and Method<>DFT
  ===> : conventional SCF is chosen

WARNING: The NDO methods need Guess=HUECKEL or Guess=HCORE or Guess=MOREAD
  ===> : Guess is set to Hueckel

WARNING: The NDO methods need %rel::SOCType==1
  ===> : %rel::SOCType is set to 1

WARNING: The NDO methods cannot have frozencore=1
  ===> : %method FrozenCore=0 end


INFO   : the flag for use of LIBINT has been found!

================================================================================
                                       INPUT FILE
================================================================================
NAME = /Users/mattyjones/GoogleDrive/Boise/Code/MorphCT/tests/output_EZ/donor_polymer/chromophores/input_orca/pair/00019-00029.inp
|  1> # ================================================================
|  2> # Orca input file made by Matty Jones
|  3> # ================================================================
|  4> ! ZINDO/S 
|  5> ! NOPOP
|  6> ! NOMOPRINT
|  7> * xyz 0   1
|  8>  C  14.98459  29.19588  -12.39690
|  9>  C  13.95336  28.35826  -11.96928
| 10>  C  12.87710  29.04113  -11.32149
| 11>  C  13.05941  30.42495  -11.23717
| 12>  S  14.52205  30.72653  -11.95840
| 13>  H  13.96997  27.22828  -12.13118
| 14>  C  11.70209  28.04158  -10.84204
| 15>  C  10.08172  28.22004  -11.26720
| 16>  C  9.03112  29.06395  -10.27835
| 17>  H  9.60897  29.91819  -9.76547
| 18>  H  8.18764  29.51048  -10.92940
| 19>  H  10.07355  28.75016  -12.29724
| 20>  H  9.65458  27.15481  -11.40673
| 21>  H  11.69860  28.04249  -9.66987
| 22>  H  11.96781  26.94801  -11.16580
| 23>  C  8.40215  28.07159  -9.14391
| 24>  C  7.06466  27.13253  -9.58943
| 25>  C  7.41655  25.56609  -10.10496
| 26>  H  8.15202  25.07504  -9.35842
| 27>  H  7.89022  25.59821  -11.15885
| 28>  H  6.43591  24.95176  -10.13999
| 29>  H  6.51806  27.67233  -10.44823
| 30>  H  6.36655  27.05660  -8.67580
| 31>  H  9.22618  27.33772  -8.79024
| 32>  H  8.07308  28.71306  -8.23780
| 33>  C  -6.11732  -27.99310  9.42535
| 34>  C  -7.44883  -27.71930  9.74161
| 35>  C  -7.66976  -27.40957  11.11985
| 36>  C  -6.50685  -27.43896  11.89579
| 37>  S  -5.28367  -27.84095  10.85048
| 38>  H  -8.29337  -27.70578  8.97310
| 39>  C  -9.04476  -27.03086  11.92308
| 40>  C  -10.59018  -27.76420  12.26026
| 41>  C  -12.19427  -27.95036  11.67239
| 42>  H  -12.88411  -27.74299  12.58463
| 43>  H  -12.34688  -27.09116  10.91625
| 44>  H  -10.26315  -28.86930  12.40126
| 45>  H  -10.80396  -27.31154  13.31350
| 46>  H  -9.41666  -26.03625  11.41744
| 47>  H  -8.71189  -26.73427  13.00782
| 48>  C  -12.65311  -29.37064  11.02332
| 49>  C  -12.97684  -29.46001  9.37248
| 50>  C  -13.04651  -27.98370  8.57771
| 51>  H  -12.00351  -27.48453  8.59601
| 52>  H  -13.82055  -27.30083  9.10260
| 53>  H  -13.37424  -28.15953  7.48123
| 54>  H  -12.14859  -30.09365  8.88007
| 55>  H  -13.99330  -29.98900  9.23516
| 56>  H  -11.83173  -30.16015  11.24143
| 57>  H  -13.62349  -29.71502  11.56193
| 58>  H  15.87561  28.91312  -12.89663
| 59>  H  12.40067  31.13297  -10.80315
| 60>  H  -5.72230  -28.24517  8.47455
| 61>  H  -6.42437  -27.24492  12.93461
| 62> *
| 63> 
| 64>                          ****END OF INPUT****
================================================================================

                       ****************************
                       * Single Point Calculation *
                       ****************************

---------------------------------
CARTESIAN COORDINATES (ANGSTROEM)
---------------------------------
  C     14.984590   29.195880  -12.396900
  C     13.953360   28.358260  -11.969280
  C     12.877100   29.041130  -11.321490
  C     13.059410   30.424950  -11.237170
  S     14.522050   30.726530  -11.958400
  H     13.969970   27.228280  -12.131180
  C     11.702090   28.041580  -10.842040
  C     10.081720   28.220040  -11.267200
  C      9.031120   29.063950  -10.278350
  H      9.608970   29.918190   -9.765470
  H      8.187640   29.510480  -10.929400
  H     10.073550   28.750160  -12.297240
  H      9.654580   27.154810  -11.406730
  H     11.698600   28.042490   -9.669870
  H     11.967810   26.948010  -11.165800
  C      8.402150   28.071590   -9.143910
  C      7.064660   27.132530   -9.589430
  C      7.416550   25.566090  -10.104960
  H      8.152020   25.075040   -9.358420
  H      7.890220   25.598210  -11.158850
  H      6.435910   24.951760  -10.139990
  H      6.518060   27.672330  -10.448230
  H      6.366550   27.056600   -8.675800
  H      9.226180   27.337720   -8.790240
  H      8.073080   28.713060   -8.237800
  C     -6.117320  -27.993100    9.425350
  C     -7.448830  -27.719300    9.741610
  C     -7.669760  -27.409570   11.119850
  C     -6.506850  -27.438960   11.895790
  S     -5.283670  -27.840950   10.850480
  H     -8.293370  -27.705780    8.973100
  C     -9.044760  -27.030860   11.923080
  C    -10.590180  -27.764200   12.260260
  C    -12.194270  -27.950360   11.672390
  H    -12.884110  -27.742990   12.584630
  H    -12.346880  -27.091160   10.916250
  H    -10.263150  -28.869300   12.401260
  H    -10.803960  -27.311540   13.313500
  H     -9.416660  -26.036250   11.417440
  H     -8.711890  -26.734270   13.007820
  C    -12.653110  -29.370640   11.023320
  C    -12.976840  -29.460010    9.372480
  C    -13.046510  -27.983700    8.577710
  H    -12.003510  -27.484530    8.596010
  H    -13.820550  -27.300830    9.102600
  H    -13.374240  -28.159530    7.481230
  H    -12.148590  -30.093650    8.880070
  H    -13.993300  -29.989000    9.235160
  H    -11.831730  -30.160150   11.241430
  H    -13.623490  -29.715020   11.561930
  H     15.875610   28.913120  -12.896630
  H     12.400670   31.132970  -10.803150
  H     -5.722300  -28.245170    8.474550
  H     -6.424370  -27.244920   12.934610

----------------------------
CARTESIAN COORDINATES (A.U.)
----------------------------
  NO LB      ZA    FRAG    MASS        X           Y           Z
   0 C     4.0000    0    12.011         28.316771329095051         55.172217438828788        -23.426745909608364
   1 C     4.0000    0    12.011         26.368029048011437         53.589345034533679        -22.618661220220957
   2 C     4.0000    0    12.011         24.334192399117352         54.879782319604480        -21.394515527928114
   3 C     4.0000    0    12.011         24.678708370592531         57.494823138247384        -21.235173820315872
   4 S     6.0000    0    32.060         27.442697403111111         58.064726745715355        -22.598100999883894
   5 H     1.0000    0     1.008         26.399417399095867         51.453992297725343        -22.924607881302812
   6 C     4.0000    0    12.011         22.113745294498539         52.990906562443492        -20.488486333019569
   7 C     4.0000    0    12.011         19.051689758876563         53.328147088303083        -21.291922296117527
   8 C     4.0000    0    12.011         17.066343482578894         54.922905869980561        -19.423266608589497
   9 H     1.0000    0     1.008         18.158321729065289         56.537185522621449        -18.454063869023965
  10 H     1.0000    0     1.008         15.472397283138998         55.766725280560422        -20.653572808078927
  11 H     1.0000    0     1.008         19.036250696362423         54.329928706417412        -23.238415803101773
  12 H     1.0000    0     1.008         18.244512138033436         51.315154118666143        -21.555595783583559
  13 H     1.0000    0     1.008         22.107150150291154         52.992626213225364        -18.273406050621094
  14 H     1.0000    0     1.008         22.615883322804095         50.924358754171230        -21.100304066137912
  15 C     4.0000    0    12.011         15.877762436126446         53.047617243722470        -17.279485693223872
  16 C     4.0000    0    12.011         13.350272629268110         51.273051020402377        -18.121396480408468
  17 C     4.0000    0    12.011         14.015248358533659         48.312908415182768        -19.095606994228891
  18 H     1.0000    0     1.008         15.405085238248722         47.384958397120748        -17.684850846211322
  19 H     1.0000    0     1.008         14.910354936388138         48.373606418604325        -21.087170469507157
  20 H     1.0000    0     1.008         12.162107322565122         47.151992959330933        -19.161804100700152
  21 H     1.0000    0     1.008         12.317348324466755         52.293125187493068        -19.744293284220042
  22 H     1.0000    0     1.008         12.031035917916345         51.129564115053739        -16.394885992673995
  23 H     1.0000    0     1.008         17.434953462261571         51.660803925821682        -16.611146251439944
  24 H     1.0000    0     1.008         15.255910257236977         54.259819866848929        -15.567185946016487
  25 C     4.0000    0    12.011        -11.560059473559152        -52.899292639470985         17.811330216354669
  26 C     4.0000    0    12.011        -14.076248718136638        -52.381885624003353         18.408975003468605
  27 C     4.0000    0    12.011        -14.493745912903860        -51.796580748543917         21.013471150284229
  28 C     4.0000    0    12.011        -12.296164494505497        -51.852119799619871         22.479785246639086
  29 S     6.0000    0    32.060         -9.984689282015699        -52.611770808194869         20.504435621589860
  30 H     1.0000    0     1.008        -15.672198027278490        -52.356336526672735         16.956701572288786
  31 C     4.0000    0    12.011        -17.092119347045582        -51.080922564366603         22.531355872833799
  32 C     4.0000    0    12.011        -20.012539908930162        -52.466734327416411         23.168533730669367
  33 C     4.0000    0    12.011        -23.043830703091899        -52.818525744507198         22.057620428321080
  34 H     1.0000    0     1.008        -24.347439379316139        -52.426653236115946         23.781504196729401
  35 H     1.0000    0     1.008        -23.332221808389626        -51.194873050242052         20.628722909417863
  36 H     1.0000    0     1.008        -19.394542771353894        -54.555070678012790         23.434985115552262
  37 H     1.0000    0     1.008        -20.416525561839848        -51.611330895635625         25.158868883960583
  38 H     1.0000    0     1.008        -17.794908496250894        -49.201382054307189         21.575834750477853
  39 H     1.0000    0     1.008        -16.463086208847212        -50.520448690306900         24.581217399343537
  40 C     4.0000    0    12.011        -23.910912642380328        -55.502465977992877         20.831055886576813
  41 C     4.0000    0    12.011        -24.522673683714654        -55.671350802581415         17.711420395654251
  42 C     4.0000    0    12.011        -24.654330903464949        -52.881529213812129         16.209522756197661
  43 H     1.0000    0     1.008        -22.683346545785085        -51.938234619542655         16.244104744448418
  44 H     1.0000    0     1.008        -26.117054520165357        -51.591091928741328         17.201421106631585
  45 H     1.0000    0     1.008        -25.273650849334963        -53.213799759939505         14.137475844875686
  46 H     1.0000    0     1.008        -22.957508013294380        -56.868756870079274         16.780900350050089
  47 H     1.0000    0     1.008        -26.443504709800251        -56.670997030164415         17.451923202944187
  48 H     1.0000    0     1.008        -22.358729390500091        -56.994423657985038         21.243224053646376
  49 H     1.0000    0     1.008        -25.744665088214834        -56.153249863992670         21.848881279568136
  50 H     1.0000    0     1.008         30.000555108941562         54.637878477201220        -24.371098750512832
  51 H     1.0000    0     1.008         23.433870177133247         58.832787035586314        -20.414994883671369
  52 H     1.0000    0     1.008        -10.813579856137578        -53.375635906048522         16.014578608222344
  53 H     1.0000    0     1.008        -12.140299882979670        -51.485437340593791         24.442870549079160

--------------------------------
INTERNAL COORDINATES (ANGSTROEM)
--------------------------------
 C      0   0   0   0.000000     0.000     0.000
 C      1   0   0   1.395672     0.000     0.000
 C      2   1   0   1.429783   114.102     0.000
 C      3   2   1   1.398322   113.693     0.000
 S      1   2   3   1.658046   105.479     0.000
 H      2   1   3   1.141640   122.672   179.630
 C      3   2   1   1.615432   112.735   179.934
 C      7   3   2   1.684698   123.997   234.488
 C      8   7   3   1.671457   120.580   267.116
 H      9   8   7   1.151817   108.817    33.387
 H      9   8   7   1.155298   108.703   152.337
 H      8   7   3   1.158480   106.239    28.691
 H      8   7   3   1.156128   106.751   143.950
 H      7   3   2   1.172176   107.366   112.744
 H      7   3   2   1.171035   109.312   358.030
 C      9   8   7   1.633198   110.256   273.221
 C     16   9   8   1.693872   117.274   276.740
 C     17  16   9   1.686218   115.508    95.320
 H     18  17  16   1.157311   109.242    47.273
 H     18  17  16   1.155889   109.783   286.762
 H     18  17  16   1.157706   108.992   166.796
 H     17  16   9   1.152256   108.113   334.445
 H     17  16   9   1.152321   107.840   216.092
 H     16   9   8   1.158738   108.842    38.173
 H     16   9   8   1.157932   108.445   155.798
 C     21  18  17  57.823389   131.264   226.728
 C     26  21  18   1.395674    95.979   147.208
 C     27  26  21   1.429786   114.101   262.479
 C     28  27  26   1.398323   113.693     0.000
 S     26  21  18   1.658046    95.604    40.952
 H     27  26  21   1.141945   123.737    80.546
 C     28  27  26   1.636834   130.765   179.958
 C     32  28  27   1.743502   137.918    60.190
 C     33  32  28   1.718532   143.781   271.100
 H     34  33  32   1.162353   105.436   227.051
 H     34  33  32   1.154670   105.472   340.775
 H     33  32  28   1.161067   100.030    37.083
 H     33  32  28   1.166155   100.014   147.715
 H     32  28  27   1.176108   104.496   298.138
 H     32  28  27   1.172787   105.900   186.581
 C     34  33  32   1.627581   119.610   105.953
 C     41  34  33   1.684655   119.423   248.495
 C     42  41  34   1.678095   115.177   349.924
 H     43  42  41   1.156440   109.560    65.462
 H     43  42  41   1.157998   109.382   304.879
 H     43  42  41   1.157839   109.067   185.454
 H     42  41  34   1.153241   108.032   110.881
 H     42  41  34   1.154070   108.069   228.990
 H     41  34  33   1.159984   108.622    10.797
 H     41  34  33   1.162039   108.010   127.231
 H      1   2   3   1.060000   127.261   180.000
 H      4   3   2   1.060002   127.206   180.000
 H     26  21  18   1.060000    80.406   274.055
 H     29  28  27   1.060001   127.206   180.000

---------------------------
INTERNAL COORDINATES (A.U.)
---------------------------
 C      0   0   0   0.000000     0.000     0.000
 C      1   0   0   2.637439     0.000     0.000
 C      2   1   0   2.701898   114.102     0.000
 C      3   2   1   2.642446   113.693     0.000
 S      1   2   3   3.133252   105.479     0.000
 H      2   1   3   2.157387   122.672   179.630
 C      3   2   1   3.052724   112.735   179.934
 C      7   3   2   3.183618   123.997   234.488
 C      8   7   3   3.158596   120.580   267.116
 H      9   8   7   2.176619   108.817    33.387
 H      9   8   7   2.183197   108.703   152.337
 H      8   7   3   2.189210   106.239    28.691
 H      8   7   3   2.184765   106.751   143.950
 H      7   3   2   2.215091   107.366   112.744
 H      7   3   2   2.212935   109.312   358.030
 C      9   8   7   3.086297   110.256   273.221
 C     16   9   8   3.200954   117.274   276.740
 C     17  16   9   3.186491   115.508    95.320
 H     18  17  16   2.187000   109.242    47.273
 H     18  17  16   2.184313   109.783   286.762
 H     18  17  16   2.187747   108.992   166.796
 H     17  16   9   2.177448   108.113   334.445
 H     17  16   9   2.177570   107.840   216.092
 H     16   9   8   2.189697   108.842    38.173
 H     16   9   8   2.188174   108.445   155.798
 C     21  18  17 109.270369   131.264   226.728
 C     26  21  18   2.637441    95.979   147.208
 C     27  26  21   2.701904   114.101   262.479
 C     28  27  26   2.642447   113.693     0.000
 S     26  21  18   3.133253    95.604    40.952
 H     27  26  21   2.157963   123.737    80.546
 C     28  27  26   3.093167   130.765   179.958
 C     32  28  27   3.294742   137.918    60.190
 C     33  32  28   3.247554   143.781   271.100
 H     34  33  32   2.196528   105.436   227.051
 H     34  33  32   2.182010   105.472   340.775
 H     33  32  28   2.194098   100.030    37.083
 H     33  32  28   2.203714   100.014   147.715
 H     32  28  27   2.222522   104.496   298.138
 H     32  28  27   2.216246   105.900   186.581
 C     34  33  32   3.075683   119.610   105.953
 C     41  34  33   3.183536   119.423   248.495
 C     42  41  34   3.171141   115.177   349.924
 H     43  42  41   2.185356   109.560    65.462
 H     43  42  41   2.188299   109.382   304.879
 H     43  42  41   2.187999   109.067   185.454
 H     42  41  34   2.179310   108.032   110.881
 H     42  41  34   2.180877   108.069   228.990
 H     41  34  33   2.192052   108.622    10.797
 H     41  34  33   2.195936   108.010   127.231
 H      1   2   3   2.003110   127.261   180.000
 H      4   3   2   2.003113   127.206   180.000
 H     26  21  18   2.003110    80.406   274.055
 H     29  28  27   2.003111   127.206   180.000

----------------------------
SLATER BASIS SET DIM= 120
----------------------------
  0 C     2 shells
 l=0 nsto= 1
    2       1.625000000000        1.000000000000
 l=1 nsto= 1
    2       1.625000000000        1.000000000000
  1 C     2 shells
 l=0 nsto= 1
    2       1.625000000000        1.000000000000
 l=1 nsto= 1
    2       1.625000000000        1.000000000000
  2 C     2 shells
 l=0 nsto= 1
    2       1.625000000000        1.000000000000
 l=1 nsto= 1
    2       1.625000000000        1.000000000000
  3 C     2 shells
 l=0 nsto= 1
    2       1.625000000000        1.000000000000
 l=1 nsto= 1
    2       1.625000000000        1.000000000000
  4 S     2 shells
 l=0 nsto= 1
    3       1.925000000000        1.000000000000
 l=1 nsto= 1
    3       1.925000000000        1.000000000000
  5 H     1 shells
 l=0 nsto= 1
    1       1.200000000000        1.000000000000
  6 C     2 shells
 l=0 nsto= 1
    2       1.625000000000        1.000000000000
 l=1 nsto= 1
    2       1.625000000000        1.000000000000
  7 C     2 shells
 l=0 nsto= 1
    2       1.625000000000        1.000000000000
 l=1 nsto= 1
    2       1.625000000000        1.000000000000
  8 C     2 shells
 l=0 nsto= 1
    2       1.625000000000        1.000000000000
 l=1 nsto= 1
    2       1.625000000000        1.000000000000
  9 H     1 shells
 l=0 nsto= 1
    1       1.200000000000        1.000000000000
 10 H     1 shells
 l=0 nsto= 1
    1       1.200000000000        1.000000000000
 11 H     1 shells
 l=0 nsto= 1
    1       1.200000000000        1.000000000000
 12 H     1 shells
 l=0 nsto= 1
    1       1.200000000000        1.000000000000
 13 H     1 shells
 l=0 nsto= 1
    1       1.200000000000        1.000000000000
 14 H     1 shells
 l=0 nsto= 1
    1       1.200000000000        1.000000000000
 15 C     2 shells
 l=0 nsto= 1
    2       1.625000000000        1.000000000000
 l=1 nsto= 1
    2       1.625000000000        1.000000000000
 16 C     2 shells
 l=0 nsto= 1
    2       1.625000000000        1.000000000000
 l=1 nsto= 1
    2       1.625000000000        1.000000000000
 17 C     2 shells
 l=0 nsto= 1
    2       1.625000000000        1.000000000000
 l=1 nsto= 1
    2       1.625000000000        1.000000000000
 18 H     1 shells
 l=0 nsto= 1
    1       1.200000000000        1.000000000000
 19 H     1 shells
 l=0 nsto= 1
    1       1.200000000000        1.000000000000
 20 H     1 shells
 l=0 nsto= 1
    1       1.200000000000        1.000000000000
 21 H     1 shells
 l=0 nsto= 1
    1       1.200000000000        1.000000000000
 22 H     1 shells
 l=0 nsto= 1
    1       1.200000000000        1.000000000000
 23 H     1 shells
 l=0 nsto= 1
    1       1.200000000000        1.000000000000
 24 H     1 shells
 l=0 nsto= 1
    1       1.200000000000        1.000000000000
 25 C     2 shells
 l=0 nsto= 1
    2       1.625000000000        1.000000000000
 l=1 nsto= 1
    2       1.625000000000        1.000000000000
 26 C     2 shells
 l=0 nsto= 1
    2       1.625000000000        1.000000000000
 l=1 nsto= 1
    2       1.625000000000        1.000000000000
 27 C     2 shells
 l=0 nsto= 1
    2       1.625000000000        1.000000000000
 l=1 nsto= 1
    2       1.625000000000        1.000000000000
 28 C     2 shells
 l=0 nsto= 1
    2       1.625000000000        1.000000000000
 l=1 nsto= 1
    2       1.625000000000        1.000000000000
 29 S     2 shells
 l=0 nsto= 1
    3       1.925000000000        1.000000000000
 l=1 nsto= 1
    3       1.925000000000        1.000000000000
 30 H     1 shells
 l=0 nsto= 1
    1       1.200000000000        1.000000000000
 31 C     2 shells
 l=0 nsto= 1
    2       1.625000000000        1.000000000000
 l=1 nsto= 1
    2       1.625000000000        1.000000000000
 32 C     2 shells
 l=0 nsto= 1
    2       1.625000000000        1.000000000000
 l=1 nsto= 1
    2       1.625000000000        1.000000000000
 33 C     2 shells
 l=0 nsto= 1
    2       1.625000000000        1.000000000000
 l=1 nsto= 1
    2       1.625000000000        1.000000000000
 34 H     1 shells
 l=0 nsto= 1
    1       1.200000000000        1.000000000000
 35 H     1 shells
 l=0 nsto= 1
    1       1.200000000000        1.000000000000
 36 H     1 shells
 l=0 nsto= 1
    1       1.200000000000        1.000000000000
 37 H     1 shells
 l=0 nsto= 1
    1       1.200000000000        1.000000000000
 38 H     1 shells
 l=0 nsto= 1
    1       1.200000000000        1.000000000000
 39 H     1 shells
 l=0 nsto= 1
    1       1.200000000000        1.000000000000
 40 C     2 shells
 l=0 nsto= 1
    2       1.625000000000        1.000000000000
 l=1 nsto= 1
    2       1.625000000000        1.000000000000
 41 C     2 shells
 l=0 nsto= 1
    2       1.625000000000        1.000000000000
 l=1 nsto= 1
    2       1.625000000000        1.000000000000
 42 C     2 shells
 l=0 nsto= 1
    2       1.625000000000        1.000000000000
 l=1 nsto= 1
    2       1.625000000000        1.000000000000
 43 H     1 shells
 l=0 nsto= 1
    1       1.200000000000        1.000000000000
 44 H     1 shells
 l=0 nsto= 1
    1       1.200000000000        1.000000000000
 45 H     1 shells
 l=0 nsto= 1
    1       1.200000000000        1.000000000000
 46 H     1 shells
 l=0 nsto= 1
    1       1.200000000000        1.000000000000
 47 H     1 shells
 l=0 nsto= 1
    1       1.200000000000        1.000000000000
 48 H     1 shells
 l=0 nsto= 1
    1       1.200000000000        1.000000000000
 49 H     1 shells
 l=0 nsto= 1
    1       1.200000000000        1.000000000000
 50 H     1 shells
 l=0 nsto= 1
    1       1.200000000000        1.000000000000
 51 H     1 shells
 l=0 nsto= 1
    1       1.200000000000        1.000000000000
 52 H     1 shells
 l=0 nsto= 1
    1       1.200000000000        1.000000000000
 53 H     1 shells
 l=0 nsto= 1
    1       1.200000000000        1.000000000000
------------------------------------------------------------------------------
                           ORCA NDO INTEGRAL CALCULATION
------------------------------------------------------------------------------

--------------
NDO PARAMETERS
--------------

Gamma integral treatment              ... Mataga-Nishimoto
Nuclear repulsuion treatment          ... Direct (ZA*ZB/RAB)
Interaction factors:
s-s (sigma) =    1.0000
s-p (sigma) =    1.0000
s-d (sigma) =    1.0000
p-p (sigma) =    1.2670  p-p(pi) =    0.5850
p-d (sigma) =    1.0000  p-d(pi) =    1.0000
d-d (sigma) =    1.0000  d-d(pi) =    1.0000 d-d (delta) =    1.0000

fGamma parameter for Mataga-Nishimoto gamma integrals:    1.2000

--------------------------
Parameters for Element H :
--------------------------
 One-electron parameters (in eV)
  U(s)  =   -13.060000 Beta(s) =    12.000000 Neff(s) =     1.000000
 One-center electron repulsion parameters (in eV)
  G(s,s)=    12.850000
--------------------------
Parameters for Element C :
--------------------------
 One-electron parameters (in eV)
  U(s)  =   -50.870766 Beta(s) =    17.000000 Neff(s) =     2.000000
  U(p)  =   -41.599980 Beta(p) =    17.000000 Neff(p) =     2.000000 
 One-center electron repulsion parameters (in eV)
  G(s,s)=    11.110000
  G(s,p)=    11.110000 G(p,p)  =    11.110000
 Slater-Condon parameters (in eV)
 F2(p,p)=     4.5098 G1(s,p)=    6.8977
--------------------------
Parameters for Element S :
--------------------------
 One-electron parameters (in eV)
  U(s)  =   -69.509597 Beta(s) =    15.000000 Neff(s) =     2.000000
  U(p)  =   -60.725746 Beta(p) =    15.000000 Neff(p) =     4.000000 
 One-center electron repulsion parameters (in eV)
  G(s,s)=    10.090000
  G(s,p)=    10.090000 G(p,p)  =    10.090000
 Slater-Condon parameters (in eV)
 F2(p,p)=     4.5377 G1(s,p)=    3.0756

 Number of atoms                    ....   54
 Number of basis functions          ....  120

 Overlap integrals                  .... done
 One electron matrix                .... done
 Nuclear repulsion                  .... done
 Integral list                      .... done
 Electron-electron repulsion        .... done
-------------------------------------------------------------------------------
                                 ORCA SCF
-------------------------------------------------------------------------------

------------
SCF SETTINGS
------------
Hamiltonian:
 ZDO-Hamiltonian        Method          .... INDO


General Settings:
 Integral files         IntName         .... /Users/mattyjones/GoogleDrive/Boise/Code/MorphCT/tests/output_EZ/donor_polymer/chromophores/input_orca/pair/00019-00029
 Hartree-Fock type      HFTyp           .... RHF
 Total Charge           Charge          ....    0
 Multiplicity           Mult            ....    1
 Number of Electrons    NEL             ....  124
 Basis Dimension        Dim             ....  120
 Nuclear Repulsion      ENuc            ....    620.8855613217 Eh

Convergence Acceleration:
 DIIS                   CNVDIIS         .... on
   Start iteration      DIISMaxIt       ....    12
   Startup error        DIISStart       ....  0.200000
   # of expansion vecs  DIISMaxEq       ....     5
   Bias factor          DIISBfac        ....   1.050
   Max. coefficient     DIISMaxC        ....  10.000
 Newton-Raphson         CNVNR           .... off
 SOSCF                  CNVSOSCF        .... on
   Start iteration      SOSCFMaxIt      ....   150
   Startup grad/error   SOSCFStart      ....  0.003300
 Level Shifting         CNVShift        .... on
   Level shift para.    LevelShift      ....    0.2500
   Turn off err/grad.   ShiftErr        ....    0.0010
 Zerner damping         CNVZerner       .... off
 Static damping         CNVDamp         .... on
   Fraction old density DampFac         ....    0.7000
   Max. Damping (<1)    DampMax         ....    0.9800
   Min. Damping (>=0)   DampMin         ....    0.0000
   Turn off err/grad.   DampErr         ....    0.1000
 Fernandez-Rico         CNVRico         .... off

SCF Procedure:
 Maximum # iterations   MaxIter         ....   125
 SCF integral mode      SCFMode         .... Conventional
 Integral Buffer length BufferLength    .... 1048576
 Integral index format  IndFormat       ....     0
 Integral value format  ValFormat       ....     0
 Integral Storage       Thresh          ....  1.000e-08 Eh

Convergence Tolerance:
 Convergence Check Mode ConvCheckMode   .... Total+1el-Energy
 Energy Change          TolE            ....  1.000e-06 Eh
 1-El. energy change                    ....  1.000e-03 Eh
 Orbital Gradient       TolG            ....  5.000e-05
 Orbital Rotation angle TolX            ....  5.000e-05
 DIIS Error             TolErr          ....  1.000e-06


Diagonalization of the overlap matrix:
Smallest eigenvalue                        ... 1.697e-01
Time for diagonalization                   ...    0.003 sec
Threshold for overlap eigenvalues          ... 1.000e-08
Number of eigenvalues below threshold      ... 0
Time for construction of square roots      ...    0.001 sec
Total time needed                          ...    0.004 sec

-------------------------------
INITIAL GUESS: EXTENDED HUECKEL
-------------------------------
EHT matrix was read from disk
EHT matrix was diagonalized
Initial density was built
                      ------------------
                      INITIAL GUESS DONE
                      ------------------

 InCore treatment chosen:
   Memory dedicated               ...    1024 MB
   Memory needed                  ...      0 MB
   Number of tiny    integrals    ...       0
   Number of small   integrals    ...       0
   Number of regular integrals    ...    7392

--------------
SCF ITERATIONS
--------------
ITER       Energy         Delta-E        Max-DP      RMS-DP      [F,P]     Damp
  0    -19.2829359240   0.000000000000 0.04478662  0.00144720  0.1047444 0.7000
  1    -19.3247751723  -0.041839248243 0.04415938  0.00136459  0.0716157 0.7000
                               ***Turning on DIIS***
  2    -19.3557246168  -0.030949444472 0.11780869  0.00350800  0.0469620 0.0000
  3    -19.4380419691  -0.082317352343 0.02379540  0.00073904  0.0200467 0.0000
  4    -19.4216659125   0.016376056574 0.01597449  0.00050678  0.0082975 0.0000
  5    -19.4386669217  -0.017001009223 0.01124715  0.00034185  0.0049658 0.0000
  6    -19.4409295580  -0.002262636251 0.00837479  0.00024160  0.0030583 0.0000
                      *** Initiating the SOSCF procedure ***
                           *** Shutting down DIIS ***
                      *** Re-Reading the Fockian *** 
                      *** Removing any level shift *** 
ITER      Energy       Delta-E        Grad      Rot      Max-DP    RMS-DP
  7    -19.43687277   0.0040567847  0.003020  0.003020  0.005019  0.000136
  8    -19.43510341   0.0017693615  0.000807  0.002217  0.002517  0.000062
  9    -19.43511793  -0.0000145179  0.000354  0.002155  0.002804  0.000066
 10    -19.43512323  -0.0000052974  0.000032  0.000087  0.000140  0.000004
                 **** Energy Check signals convergence ****
              ***Rediagonalizing the Fockian in SOSCF/NRSCF***

               *****************************************************
               *                     SUCCESS                       *
               *           SCF CONVERGED AFTER  11 CYCLES          *
               *****************************************************


----------------
TOTAL SCF ENERGY
----------------

Total Energy       :          -19.43512328 Eh            -528.85659 eV

Components:
Nuclear Repulsion  :          620.88556132 Eh           16895.15506 eV
Electronic Energy  :         -640.32068460 Eh          -17424.01165 eV

One Electron Energy:        -1190.30639482 Eh          -32389.88367 eV
Two Electron Energy:          549.98571022 Eh           14965.87203 eV


---------------
SCF CONVERGENCE
---------------

  Last Energy change         ...   -4.8985e-08  Tolerance :   1.0000e-06
  Last MAX-Density change    ...    6.4346e-05  Tolerance :   1.0000e-05
  Last RMS-Density change    ...    1.3668e-06  Tolerance :   1.0000e-06
  Last Orbital Gradient      ...    1.2243e-05  Tolerance :   5.0000e-05
  Last Orbital Rotation      ...    2.5063e-05  Tolerance :   5.0000e-05

             **** THE GBW FILE WAS UPDATED (/Users/mattyjones/GoogleDrive/Boise/Code/MorphCT/tests/output_EZ/donor_polymer/chromophores/input_orca/pair/00019-00029.gbw) ****
             **** DENSITY FILE WAS UPDATED (/Users/mattyjones/GoogleDrive/Boise/Code/MorphCT/tests/output_EZ/donor_polymer/chromophores/input_orca/pair/00019-00029.scfp.tmp) ****
             **** ENERGY FILE WAS UPDATED (/Users/mattyjones/GoogleDrive/Boise/Code/MorphCT/tests/output_EZ/donor_polymer/chromophores/input_orca/pair/00019-00029.en.tmp) ****
----------------
ORBITAL ENERGIES
----------------

  NO   OCC          E(Eh)            E(eV) 
   0   2.0000      -1.558126       -42.3988 
   1   2.0000      -1.555261       -42.3208 
   2   2.0000      -1.412945       -38.4482 
   3   2.0000      -1.396178       -37.9919 
   4   2.0000      -1.281385       -34.8683 
   5   2.0000      -1.277961       -34.7751 
   6   2.0000      -1.187475       -32.3128 
   7   2.0000      -1.179171       -32.0869 
   8   2.0000      -1.115574       -30.3563 
   9   2.0000      -1.106540       -30.1105 
  10   2.0000      -1.060320       -28.8528 
  11   2.0000      -1.051538       -28.6138 
  12   2.0000      -0.990914       -26.9641 
  13   2.0000      -0.956278       -26.0217 
  14   2.0000      -0.906727       -24.6733 
  15   2.0000      -0.894853       -24.3502 
  16   2.0000      -0.855084       -23.2680 
  17   2.0000      -0.836568       -22.7642 
  18   2.0000      -0.833093       -22.6696 
  19   2.0000      -0.823129       -22.3985 
  20   2.0000      -0.783885       -21.3306 
  21   2.0000      -0.775863       -21.1123 
  22   2.0000      -0.724667       -19.7192 
  23   2.0000      -0.724586       -19.7170 
  24   2.0000      -0.709628       -19.3100 
  25   2.0000      -0.704807       -19.1788 
  26   2.0000      -0.674086       -18.3428 
  27   2.0000      -0.669916       -18.2293 
  28   2.0000      -0.634487       -17.2653 
  29   2.0000      -0.633202       -17.2303 
  30   2.0000      -0.620761       -16.8918 
  31   2.0000      -0.612547       -16.6682 
  32   2.0000      -0.593409       -16.1475 
  33   2.0000      -0.590747       -16.0750 
  34   2.0000      -0.576084       -15.6760 
  35   2.0000      -0.571203       -15.5432 
  36   2.0000      -0.566726       -15.4214 
  37   2.0000      -0.561858       -15.2889 
  38   2.0000      -0.557426       -15.1683 
  39   2.0000      -0.549404       -14.9500 
  40   2.0000      -0.534693       -14.5497 
  41   2.0000      -0.534133       -14.5345 
  42   2.0000      -0.522512       -14.2183 
  43   2.0000      -0.512444       -13.9443 
  44   2.0000      -0.505703       -13.7609 
  45   2.0000      -0.503413       -13.6986 
  46   2.0000      -0.499823       -13.6009 
  47   2.0000      -0.495016       -13.4701 
  48   2.0000      -0.490796       -13.3552 
  49   2.0000      -0.487198       -13.2573 
  50   2.0000      -0.479028       -13.0350 
  51   2.0000      -0.470275       -12.7968 
  52   2.0000      -0.468552       -12.7499 
  53   2.0000      -0.461467       -12.5571 
  54   2.0000      -0.456879       -12.4323 
  55   2.0000      -0.439141       -11.9496 
  56   2.0000      -0.436901       -11.8887 
  57   2.0000      -0.430292       -11.7088 
  58   2.0000      -0.357359        -9.7242 
  59   2.0000      -0.356712        -9.7066 
  60   2.0000      -0.305685        -8.3181 
  61   2.0000      -0.305046        -8.3007 
  62   0.0000       0.005723         0.1557 
  63   0.0000       0.007532         0.2049 
  64   0.0000       0.040010         1.0887 
  65   0.0000       0.069396         1.8884 
  66   0.0000       0.072799         1.9810 
  67   0.0000       0.077758         2.1159 
  68   0.0000       0.084791         2.3073 
  69   0.0000       0.085988         2.3399 
  70   0.0000       0.099254         2.7008 
  71   0.0000       0.104885         2.8541 
  72   0.0000       0.106279         2.8920 
  73   0.0000       0.108539         2.9535 
  74   0.0000       0.120796         3.2870 
  75   0.0000       0.123322         3.3558 
  76   0.0000       0.141668         3.8550 
  77   0.0000       0.145699         3.9647 
  78   0.0000       0.158460         4.3119 
  79   0.0000       0.160485         4.3670 
  80   0.0000       0.164300         4.4708 
  81   0.0000       0.165862         4.5133 
  82   0.0000       0.166668         4.5353 
  83   0.0000       0.174040         4.7359 
  84   0.0000       0.202075         5.4987 
  85   0.0000       0.203847         5.5470 
  86   0.0000       0.220255         5.9934 
  87   0.0000       0.229399         6.2423 
  88   0.0000       0.230777         6.2797 
  89   0.0000       0.231872         6.3095 
  90   0.0000       0.233676         6.3586 
  91   0.0000       0.236467         6.4346 
  92   0.0000       0.236767         6.4428 
  93   0.0000       0.238267         6.4836 
  94   0.0000       0.239092         6.5060 
  95   0.0000       0.239371         6.5136 
  96   0.0000       0.241021         6.5585 
  97   0.0000       0.242146         6.5891 
  98   0.0000       0.244594         6.6558 
  99   0.0000       0.245021         6.6673 
 100   0.0000       0.245566         6.6822 
 101   0.0000       0.250943         6.8285 
 102   0.0000       0.255926         6.9641 
 103   0.0000       0.259736         7.0678 
 104   0.0000       0.265290         7.2189 
 105   0.0000       0.267077         7.2675 
 106   0.0000       0.279183         7.5970 
 107   0.0000       0.284988         7.7549 
 108   0.0000       0.304810         8.2943 
 109   0.0000       0.307005         8.3540 
 110   0.0000       0.308852         8.4043 
 111   0.0000       0.311154         8.4669 
 112   0.0000       0.337489         9.1835 
 113   0.0000       0.341862         9.3025 
 114   0.0000       0.349868         9.5204 
 115   0.0000       0.364589         9.9210 
 116   0.0000       0.404820        11.0157 
 117   0.0000       0.420658        11.4467 
 118   0.0000       0.428740        11.6666 
 119   0.0000       0.438105        11.9214 
-------
TIMINGS
-------

Total SCF time: 0 days 0 hours 0 min 0 sec 

Total time                  ....       0.127 sec
Sum of individual times     ....       0.101 sec  ( 79.8%)

Fock matrix formation       ....       0.047 sec  ( 37.2%)
Diagonalization             ....       0.024 sec  ( 19.0%)
Density matrix formation    ....       0.005 sec  (  4.2%)
Population analysis         ....       0.000 sec  (  0.0%)
Initial guess               ....       0.003 sec  (  2.4%)
Orbital Transformation      ....       0.000 sec  (  0.0%)
Orbital Orthonormalization  ....       0.000 sec  (  0.0%)
DIIS solution               ....       0.014 sec  ( 10.6%)
SOSCF solution              ....       0.008 sec  (  6.4%)

-------------------------   --------------------
FINAL SINGLE POINT ENERGY       -19.435123276111
-------------------------   --------------------


                            ***************************************
                            *     ORCA property calculations      *
                            ***************************************

                                    ---------------------
                                    Active property flags
                                    ---------------------
   (+) Dipole Moment


------------------------------------------------------------------------------
                       ORCA ELECTRIC PROPERTIES CALCULATION
------------------------------------------------------------------------------

Dipole Moment Calculation                       ... on
Quadrupole Moment Calculation                   ... off
Polarizability Calculation                      ... off
GBWName                                         ... /Users/mattyjones/GoogleDrive/Boise/Code/MorphCT/tests/output_EZ/donor_polymer/chromophores/input_orca/pair/00019-00029.gbw
Electron density file                           ... /Users/mattyjones/GoogleDrive/Boise/Code/MorphCT/tests/output_EZ/donor_polymer/chromophores/input_orca/pair/00019-00029.scfp.tmp

-------------
DIPOLE MOMENT
-------------
                                X             Y             Z
Electronic contribution:    241.91603      63.41819     -23.51367
Nuclear contribution   :   -132.97142     -41.07639      15.74908
                        -----------------------------------------
Total Dipole Moment    :    108.94461      22.34180      -7.76459
                        -----------------------------------------
Magnitude (a.u.)       :    111.48261
Magnitude (Debye)      :    283.36627


Timings for individual modules:

Sum of individual times         ...        0.223 sec (=   0.004 min)
STO integral calculation        ...        0.047 sec (=   0.001 min)  21.1 %
SCF iterations                  ...        0.176 sec (=   0.003 min)  78.9 %
                             ****ORCA TERMINATED NORMALLY****
TOTAL RUN TIME: 0 days 0 hours 0 minutes 0 seconds 548 msec

