
                                 *****************
                                 * O   R   C   A *
                                 *****************

           --- An Ab Initio, DFT and Semiempirical electronic structure package ---

                  #######################################################
                  #                        -***-                        #
                  #  Department of molecular theory and spectroscopy    #
                  #              Directorship: Frank Neese              #
                  # Max Planck Institute for Chemical Energy Conversion #
                  #                  D-45470 Muelheim/Ruhr              #
                  #                       Germany                       #
                  #                                                     #
                  #                  All rights reserved                #
                  #                        -***-                        #
                  #######################################################


                         Program Version 3.0.3 - RELEASE   -


 With contributions from (in alphabetic order):
   Ute Becker             : Parallelization
   Dmytro Bykov           : SCF Hessian
   Dmitry Ganyushin       : Spin-Orbit,Spin-Spin,Magnetic field MRCI
   Andreas Hansen         : Spin unrestricted coupled pair/coupled cluster methods
   Dimitrios Liakos       : Extrapolation schemes; parallel MDCI
   Robert Izsak           : Overlap fitted RIJCOSX, COSX-SCS-MP3
   Christian Kollmar      : KDIIS, OOCD, Brueckner-CCSD(T), CCSD density
   Simone Kossmann        : Meta GGA functionals, TD-DFT gradient, OOMP2, MP2 Hessian
   Taras Petrenko         : DFT Hessian,TD-DFT gradient, ASA and ECA modules, normal mode analysis, Resonance Raman, ABS, FL, XAS/XES, NRVS
   Christoph Reimann      : Effective Core Potentials
   Michael Roemelt        : Restricted open shell CIS
   Christoph Riplinger    : Improved optimizer, TS searches, QM/MM, DLPNO-CCSD
   Barbara Sandhoefer     : DKH picture change effects
   Igor Schapiro          : Molecular dynamics
   Kantharuban Sivalingam : CASSCF convergence, NEVPT2
   Boris Wezisla          : Elementary symmetry handling
   Frank Wennmohs         : Technical directorship


 We gratefully acknowledge several colleagues who have allowed us to
 interface, adapt or use parts of their codes:
   Stefan Grimme, W. Hujo, H. Kruse, T. Risthaus : VdW corrections, initial TS optimization,
                                                   DFT functionals, gCP
   Ed Valeev                                     : LibInt (2-el integral package), F12 methods
   Garnet Chan, S. Sharma, R. Olivares           : DMRG
   Ulf Ekstrom                                   : XCFun DFT Library
   Mihaly Kallay                                 : mrcc  (arbitrary order and MRCC methods)
   Andreas Klamt, Michael Diedenhofen            : otool_cosmo (COSMO solvation model)
   Frank Weinhold                                : gennbo (NPA and NBO analysis)
   Christopher J. Cramer and Donald G. Truhlar   : smd solvation model


 Your calculation uses the libint2 library for the computation of 2-el integrals
 For citations please refer to: http://libint.valeyev.net

 This ORCA versions uses:
   CBLAS   interface :  Fast vector & matrix operations
   LAPACKE interface :  Fast linear algebra routines
   SCALAPACK package :  Parallel linear algebra routines


leaving
================================================================================
                                        WARNINGS
                       Please study these warnings very carefully!
================================================================================
Now building the actual basis set

WARNING: Direct SCF is incompatible with Method<>HF and Method<>DFT
  ===> : conventional SCF is chosen

WARNING: The NDO methods need Guess=HUECKEL or Guess=HCORE or Guess=MOREAD
  ===> : Guess is set to Hueckel

WARNING: The NDO methods need %rel::SOCType==1
  ===> : %rel::SOCType is set to 1

WARNING: The NDO methods cannot have frozencore=1
  ===> : %method FrozenCore=0 end


INFO   : the flag for use of LIBINT has been found!

================================================================================
                                       INPUT FILE
================================================================================
NAME = /Users/mattyjones/GoogleDrive/Boise/Code/MorphCT/tests/output_EZ/donor_polymer/chromophores/input_orca/pair/00013-00026.inp
|  1> # ================================================================
|  2> # Orca input file made by Matty Jones
|  3> # ================================================================
|  4> ! ZINDO/S 
|  5> ! NOPOP
|  6> ! NOMOPRINT
|  7> * xyz 0   1
|  8>  C  -15.21815  -14.00221  3.48727
|  9>  C  -13.89150  -13.80249  3.10255
| 10>  C  -12.93177  -14.35316  4.00807
| 11>  C  -13.50349  -14.99092  5.11338
| 12>  S  -15.14326  -14.84202  4.91493
| 13>  H  -13.41876  -12.80692  2.67277
| 14>  C  -11.33813  -14.22818  3.78000
| 15>  C  -10.83214  -12.62433  3.51725
| 16>  C  -9.21024  -12.19881  3.26610
| 17>  H  -8.60302  -13.17612  3.17659
| 18>  H  -8.84917  -11.62719  4.20500
| 19>  H  -11.39662  -12.25965  2.58083
| 20>  H  -11.18956  -12.01968  4.43465
| 21>  H  -10.75219  -14.58645  4.71549
| 22>  H  -11.01035  -14.86369  2.86805
| 23>  C  -8.99404  -11.26328  1.94800
| 24>  C  -8.44339  -11.94715  0.50448
| 25>  C  -7.63729  -13.41267  0.65687
| 26>  H  -6.86280  -13.33622  1.51431
| 27>  H  -7.08710  -13.64612  -0.33498
| 28>  H  -8.39703  -14.25323  0.88776
| 29>  H  -9.35818  -12.11610  -0.17787
| 30>  H  -7.72893  -11.19323  0.00352
| 31>  H  -9.99651  -10.73819  1.69352
| 32>  H  -8.22605  -10.43646  2.22247
| 33>  C  8.84001  9.73216  -5.46175
| 34>  C  9.42144  10.39398  -4.37924
| 35>  C  8.57924  11.37996  -3.77692
| 36>  C  7.32645  11.49730  -4.38690
| 37>  S  7.32674  10.39051  -5.62199
| 38>  H  10.47902  10.18321  -4.00256
| 39>  C  8.99602  12.31396  -2.52102
| 40>  C  10.31061  13.36031  -2.75509
| 41>  C  10.72575  14.40587  -1.48387
| 42>  H  9.74682  14.88359  -1.09391
| 43>  H  11.19525  13.78151  -0.63573
| 44>  H  11.23482  12.71856  -2.99657
| 45>  H  10.04519  14.01907  -3.66387
| 46>  H  8.10424  12.93654  -2.11844
| 47>  H  9.32766  11.61130  -1.64463
| 48>  C  11.74250  15.58777  -1.96867
| 49>  C  13.40591  15.30229  -1.91509
| 50>  C  13.85542  13.84725  -1.20894
| 51>  H  14.99917  13.70688  -1.32193
| 52>  H  13.30592  12.97379  -1.73003
| 53>  H  13.57922  13.86952  -0.08498
| 54>  H  13.79811  15.30383  -3.00076
| 55>  H  13.90381  16.16168  -1.32962
| 56>  H  11.48904  15.87009  -3.06400
| 57>  H  11.55101  16.52179  -1.30777
| 58>  H  -16.08981  -13.68409  2.97481
| 59>  H  -12.99521  -15.46937  5.91109
| 60>  H  9.27429  8.96945  -6.05613
| 61>  H  6.54104  12.15579  -4.11650
| 62> *
| 63> 
| 64>                          ****END OF INPUT****
================================================================================

                       ****************************
                       * Single Point Calculation *
                       ****************************

---------------------------------
CARTESIAN COORDINATES (ANGSTROEM)
---------------------------------
  C    -15.218150  -14.002210    3.487270
  C    -13.891500  -13.802490    3.102550
  C    -12.931770  -14.353160    4.008070
  C    -13.503490  -14.990920    5.113380
  S    -15.143260  -14.842020    4.914930
  H    -13.418760  -12.806920    2.672770
  C    -11.338130  -14.228180    3.780000
  C    -10.832140  -12.624330    3.517250
  C     -9.210240  -12.198810    3.266100
  H     -8.603020  -13.176120    3.176590
  H     -8.849170  -11.627190    4.205000
  H    -11.396620  -12.259650    2.580830
  H    -11.189560  -12.019680    4.434650
  H    -10.752190  -14.586450    4.715490
  H    -11.010350  -14.863690    2.868050
  C     -8.994040  -11.263280    1.948000
  C     -8.443390  -11.947150    0.504480
  C     -7.637290  -13.412670    0.656870
  H     -6.862800  -13.336220    1.514310
  H     -7.087100  -13.646120   -0.334980
  H     -8.397030  -14.253230    0.887760
  H     -9.358180  -12.116100   -0.177870
  H     -7.728930  -11.193230    0.003520
  H     -9.996510  -10.738190    1.693520
  H     -8.226050  -10.436460    2.222470
  C      8.840010    9.732160   -5.461750
  C      9.421440   10.393980   -4.379240
  C      8.579240   11.379960   -3.776920
  C      7.326450   11.497300   -4.386900
  S      7.326740   10.390510   -5.621990
  H     10.479020   10.183210   -4.002560
  C      8.996020   12.313960   -2.521020
  C     10.310610   13.360310   -2.755090
  C     10.725750   14.405870   -1.483870
  H      9.746820   14.883590   -1.093910
  H     11.195250   13.781510   -0.635730
  H     11.234820   12.718560   -2.996570
  H     10.045190   14.019070   -3.663870
  H      8.104240   12.936540   -2.118440
  H      9.327660   11.611300   -1.644630
  C     11.742500   15.587770   -1.968670
  C     13.405910   15.302290   -1.915090
  C     13.855420   13.847250   -1.208940
  H     14.999170   13.706880   -1.321930
  H     13.305920   12.973790   -1.730030
  H     13.579220   13.869520   -0.084980
  H     13.798110   15.303830   -3.000760
  H     13.903810   16.161680   -1.329620
  H     11.489040   15.870090   -3.064000
  H     11.551010   16.521790   -1.307770
  H    -16.089810  -13.684090    2.974810
  H    -12.995210  -15.469370    5.911090
  H      9.274290    8.969450   -6.056130
  H      6.541040   12.155790   -4.116500

----------------------------
CARTESIAN COORDINATES (A.U.)
----------------------------
  NO LB      ZA    FRAG    MASS        X           Y           Z
   0 C     4.0000    0    12.011        -28.758135764933694        -26.460342169653490          6.589985255039563
   1 C     4.0000    0    12.011        -26.251130589367069        -26.082926066186737          5.862969816797380
   2 C     4.0000    0    12.011        -24.437503726858825        -27.123541556353153          7.574154625585751
   3 C     4.0000    0    12.011        -25.517897952144281        -28.328733295522767          9.662887818670251
   4 S     6.0000    0    32.060        -28.616614174764333        -28.047353074181895          9.287871667393578
   5 H     1.0000    0     1.008        -25.357781456817136        -24.201571419038757          5.050803318960703
   6 C     4.0000    0    12.011        -21.425960570796562        -26.887363584135674          7.143164786222331
   7 C     4.0000    0    12.011        -20.469778044293747        -23.856526324246076          6.646639244534523
   8 C     4.0000    0    12.011        -17.404831227686870        -23.052410059739906          6.172034526000200
   9 H     1.0000    0     1.008        -16.257351724647208        -24.899258307682480          6.002885139752909
  10 H     1.0000    0     1.008        -16.722507812511925        -21.972204807067840          7.946298393138863
  11 H     1.0000    0     1.008        -21.536490652369615        -23.167380997727673          4.877061898207984
  12 H     1.0000    0     1.008        -21.145203959079883        -22.713903417370588          8.380273999793879
  13 H     1.0000    0     1.008        -20.318694439886745        -27.564395766135640          8.910984687244323
  14 H     1.0000    0     1.008        -20.806546138619854        -28.088303439503971          5.419829038392846
  15 C     4.0000    0    12.011        -16.996272437533094        -21.284514569672556          3.681186508878598
  16 C     4.0000    0    12.011        -15.955694741889358        -22.576841580877282          0.953329040040593
  17 C     4.0000    0    12.011        -14.432386505335437        -25.346273024661556          1.241304405588852
  18 H     1.0000    0     1.008        -12.968812511874766        -25.201803461723276          2.861631181858291
  19 H     1.0000    0     1.008        -13.392678083713303        -25.787429590625472         -0.633020460340941
  20 H     1.0000    0     1.008        -15.868087038320770        -26.934701223790402          1.677623272649930
  21 H     1.0000    0     1.008        -17.684397311939179        -22.896110811203275         -0.336125587440573
  22 H     1.0000    0     1.008        -14.605561008247980        -21.152139253991372          0.006651835991403
  23 H     1.0000    0     1.008        -18.890666195005132        -20.292238274011844          3.200289002318318
  24 H     1.0000    0     1.008        -15.544981663942913        -19.722051207623785          4.199859640855964
  25 C     4.0000    0    12.011         16.705197921125205         18.391117091503048        -10.321211711944397
  26 C     4.0000    0    12.011         17.803941387171037         19.641775641454814         -8.275564274713302
  27 C     4.0000    0    12.011         16.212414037182558         21.505007814978487         -7.137344429729854
  28 C     4.0000    0    12.011         13.844984033867355         21.726748279532806         -8.290039576899138
  29 S     6.0000    0    32.060         13.845532054446192         19.635218291770105        -10.624021427643939
  30 H     1.0000    0     1.008         19.802477951883475         19.243478064208229         -7.563742234587845
  31 C     4.0000    0    12.011         17.000014095278257         23.270012024060936         -4.764037378138154
  32 C     4.0000    0    12.011         19.484229173669796         25.247326964289439         -5.206365574305101
  33 C     4.0000    0    12.011         20.268730080905865         27.223149020872143         -2.804107918341728
  34 H     1.0000    0     1.008         18.418820476626333         28.125908989569002         -2.067190315157796
  35 H     1.0000    0     1.008         21.155956500781890         26.043279611897070         -1.201355595117757
  36 H     1.0000    0     1.008         21.230732963901154         24.034595217845474         -5.662696641124406
  37 H     1.0000    0     1.008         18.982658063204418         26.492202952271398         -6.923710890290057
  38 H     1.0000    0     1.008         15.314794123569966         24.446517720517630         -4.003271431144136
  39 H     1.0000    0     1.008         17.626722870331903         21.942177058799828         -3.107900291630908
  40 C     4.0000    0    12.011         22.190109127570299         29.456616338553669         -3.720247148066750
  41 C     4.0000    0    12.011         25.333498475996247         28.917137321841828         -3.618995621811250
  42 C     4.0000    0    12.011         26.182949270455190         26.167510207941053         -2.284565512342758
  43 H     1.0000    0     1.008         28.344323536127618         25.902249350522524         -2.498085668214520
  44 H     1.0000    0     1.008         25.144544759865461         24.516910019006193         -3.269282903467783
  45 H     1.0000    0     1.008         25.661006912266139         26.209594408943477         -0.160588926860628
  46 H     1.0000    0     1.008         26.074649065720159         28.920047500088067         -5.670614593625535
  47 H     1.0000    0     1.008         26.274393118075640         30.541149064072414         -2.512617662184375
  48 H     1.0000    0     1.008         21.711139141666617         29.990123820682317         -5.790120874334715
  49 H     1.0000    0     1.008         21.828245470185717         31.221658342158793         -2.471327146158195
  50 H     1.0000    0     1.008        -30.405334446827496        -25.859182491930458          5.621576200450279
  51 H     1.0000    0     1.008        -24.557387952794787        -29.232872764297394         11.170341252960570
  52 H     1.0000    0     1.008         17.525868186564526         16.949804071899973        -11.444427131424510
  53 H     1.0000    0     1.008         12.360774231024264         22.971114041458613         -7.779057630286833

--------------------------------
INTERNAL COORDINATES (ANGSTROEM)
--------------------------------
 C      0   0   0   0.000000     0.000     0.000
 C      1   0   0   1.395671     0.000     0.000
 C      2   1   0   1.429785   114.101     0.000
 C      3   2   1   1.398325   113.693     0.000
 S      1   2   3   1.658042   105.480     0.000
 H      2   1   3   1.182943   126.902   223.307
 C      3   2   1   1.614721   122.903   180.820
 C      7   3   2   1.702175   112.837    52.416
 C      8   7   3   1.695495   122.936   179.316
 H      9   8   7   1.154064   107.594     7.096
 H      9   8   7   1.157002   107.597   250.378
 H      8   7   3   1.152611   106.138   300.700
 H      8   7   3   1.155411   106.175    56.769
 H      7   3   2   1.160528   111.134   170.536
 H      7   3   2   1.158864   110.356   291.327
 C      9   8   7   1.630750   112.987   129.590
 C     16   9   8   1.689569   120.104   259.813
 C     17  16   9   1.679514   115.600   338.726
 H     18  17  16   1.157965   109.305   313.347
 H     18  17  16   1.158004   109.040   193.973
 H     18  17  16   1.156311   109.699    73.851
 H     17  16   9   1.153684   107.829    99.460
 H     17  16   9   1.153174   107.966   217.415
 H     16   9   8   1.159925   108.811    22.246
 H     16   9   8   1.161367   107.762   138.549
 C     23  17  16  27.244649   165.032    13.120
 C     26  23  17   1.395670   117.514    20.099
 C     27  26  23   1.429772   114.102   277.219
 C     28  27  26   1.398330   113.693     0.000
 S     26  23  17   1.658037    76.662   279.393
 H     27  26  23   1.142273   123.641    97.726
 C     28  27  26   1.619675   124.942   180.884
 C     32  28  27   1.696403   116.622    61.836
 C     33  32  28   1.697509   117.781   177.118
 H     34  33  32   1.156974   107.446   314.087
 H     34  33  32   1.153082   108.475    71.400
 H     33  32  28   1.150791   107.899   299.225
 H     33  32  28   1.153384   106.420    56.965
 H     32  28  27   1.159719   112.388   187.620
 H     32  28  27   1.171228   107.885   304.440
 C     34  33  32   1.632697   112.074   194.183
 C     41  34  33   1.688580   118.793   271.444
 C     42  41  34   1.678645   115.067   354.151
 H     43  42  41   1.157858   109.181   174.296
 H     43  42  41   1.156035   109.756    54.254
 H     43  42  41   1.157613   109.140   293.878
 H     42  41  34   1.154341   107.736   114.420
 H     42  41  34   1.152923   108.392   232.541
 H     41  34  33   1.159178   108.706    33.539
 H     41  34  33   1.160108   108.112   150.334
 H      1   2   3   1.060003   127.261   180.000
 H      4   3   2   1.060002   127.205   180.000
 H     26  23  17   1.060006    78.989   146.548
 H     29  28  27   1.059997   127.206   180.000

---------------------------
INTERNAL COORDINATES (A.U.)
---------------------------
 C      0   0   0   0.000000     0.000     0.000
 C      1   0   0   2.637436     0.000     0.000
 C      2   1   0   2.701902   114.101     0.000
 C      3   2   1   2.642451   113.693     0.000
 S      1   2   3   3.133245   105.480     0.000
 H      2   1   3   2.235438   126.902   223.307
 C      3   2   1   3.051381   122.903   180.820
 C      7   3   2   3.216644   112.837    52.416
 C      8   7   3   3.204021   122.936   179.316
 H      9   8   7   2.180864   107.594     7.096
 H      9   8   7   2.186417   107.597   250.378
 H      8   7   3   2.178119   106.138   300.700
 H      8   7   3   2.183409   106.175    56.769
 H      7   3   2   2.193080   111.134   170.536
 H      7   3   2   2.189935   110.356   291.327
 C      9   8   7   3.081671   112.987   129.590
 C     16   9   8   3.192823   120.104   259.813
 C     17  16   9   3.173822   115.600   338.726
 H     18  17  16   2.188237   109.305   313.347
 H     18  17  16   2.188311   109.040   193.973
 H     18  17  16   2.185112   109.699    73.851
 H     17  16   9   2.180146   107.829    99.460
 H     17  16   9   2.179182   107.966   217.415
 H     16   9   8   2.191940   108.811    22.246
 H     16   9   8   2.194666   107.762   138.549
 C     23  17  16  51.484925   165.032    13.120
 C     26  23  17   2.637434   117.514    20.099
 C     27  26  23   2.701877   114.102   277.219
 C     28  27  26   2.642461   113.693     0.000
 S     26  23  17   3.133236    76.662   279.393
 H     27  26  23   2.158583   123.641    97.726
 C     28  27  26   3.060742   124.942   180.884
 C     32  28  27   3.205738   116.622    61.836
 C     33  32  28   3.207827   117.781   177.118
 H     34  33  32   2.186364   107.446   314.087
 H     34  33  32   2.179008   108.475    71.400
 H     33  32  28   2.174680   107.899   299.225
 H     33  32  28   2.179579   106.420    56.965
 H     32  28  27   2.191551   112.388   187.620
 H     32  28  27   2.213301   107.885   304.440
 C     34  33  32   3.085350   112.074   194.183
 C     41  34  33   3.190954   118.793   271.444
 C     42  41  34   3.172179   115.067   354.151
 H     43  42  41   2.188034   109.181   174.296
 H     43  42  41   2.184590   109.756    54.254
 H     43  42  41   2.187572   109.140   293.878
 H     42  41  34   2.181388   107.736   114.420
 H     42  41  34   2.178708   108.392   232.541
 H     41  34  33   2.190530   108.706    33.539
 H     41  34  33   2.192286   108.112   150.334
 H      1   2   3   2.003116   127.261   180.000
 H      4   3   2   2.003113   127.205   180.000
 H     26  23  17   2.003122    78.989   146.548
 H     29  28  27   2.003104   127.206   180.000

----------------------------
SLATER BASIS SET DIM= 120
----------------------------
  0 C     2 shells
 l=0 nsto= 1
    2       1.625000000000        1.000000000000
 l=1 nsto= 1
    2       1.625000000000        1.000000000000
  1 C     2 shells
 l=0 nsto= 1
    2       1.625000000000        1.000000000000
 l=1 nsto= 1
    2       1.625000000000        1.000000000000
  2 C     2 shells
 l=0 nsto= 1
    2       1.625000000000        1.000000000000
 l=1 nsto= 1
    2       1.625000000000        1.000000000000
  3 C     2 shells
 l=0 nsto= 1
    2       1.625000000000        1.000000000000
 l=1 nsto= 1
    2       1.625000000000        1.000000000000
  4 S     2 shells
 l=0 nsto= 1
    3       1.925000000000        1.000000000000
 l=1 nsto= 1
    3       1.925000000000        1.000000000000
  5 H     1 shells
 l=0 nsto= 1
    1       1.200000000000        1.000000000000
  6 C     2 shells
 l=0 nsto= 1
    2       1.625000000000        1.000000000000
 l=1 nsto= 1
    2       1.625000000000        1.000000000000
  7 C     2 shells
 l=0 nsto= 1
    2       1.625000000000        1.000000000000
 l=1 nsto= 1
    2       1.625000000000        1.000000000000
  8 C     2 shells
 l=0 nsto= 1
    2       1.625000000000        1.000000000000
 l=1 nsto= 1
    2       1.625000000000        1.000000000000
  9 H     1 shells
 l=0 nsto= 1
    1       1.200000000000        1.000000000000
 10 H     1 shells
 l=0 nsto= 1
    1       1.200000000000        1.000000000000
 11 H     1 shells
 l=0 nsto= 1
    1       1.200000000000        1.000000000000
 12 H     1 shells
 l=0 nsto= 1
    1       1.200000000000        1.000000000000
 13 H     1 shells
 l=0 nsto= 1
    1       1.200000000000        1.000000000000
 14 H     1 shells
 l=0 nsto= 1
    1       1.200000000000        1.000000000000
 15 C     2 shells
 l=0 nsto= 1
    2       1.625000000000        1.000000000000
 l=1 nsto= 1
    2       1.625000000000        1.000000000000
 16 C     2 shells
 l=0 nsto= 1
    2       1.625000000000        1.000000000000
 l=1 nsto= 1
    2       1.625000000000        1.000000000000
 17 C     2 shells
 l=0 nsto= 1
    2       1.625000000000        1.000000000000
 l=1 nsto= 1
    2       1.625000000000        1.000000000000
 18 H     1 shells
 l=0 nsto= 1
    1       1.200000000000        1.000000000000
 19 H     1 shells
 l=0 nsto= 1
    1       1.200000000000        1.000000000000
 20 H     1 shells
 l=0 nsto= 1
    1       1.200000000000        1.000000000000
 21 H     1 shells
 l=0 nsto= 1
    1       1.200000000000        1.000000000000
 22 H     1 shells
 l=0 nsto= 1
    1       1.200000000000        1.000000000000
 23 H     1 shells
 l=0 nsto= 1
    1       1.200000000000        1.000000000000
 24 H     1 shells
 l=0 nsto= 1
    1       1.200000000000        1.000000000000
 25 C     2 shells
 l=0 nsto= 1
    2       1.625000000000        1.000000000000
 l=1 nsto= 1
    2       1.625000000000        1.000000000000
 26 C     2 shells
 l=0 nsto= 1
    2       1.625000000000        1.000000000000
 l=1 nsto= 1
    2       1.625000000000        1.000000000000
 27 C     2 shells
 l=0 nsto= 1
    2       1.625000000000        1.000000000000
 l=1 nsto= 1
    2       1.625000000000        1.000000000000
 28 C     2 shells
 l=0 nsto= 1
    2       1.625000000000        1.000000000000
 l=1 nsto= 1
    2       1.625000000000        1.000000000000
 29 S     2 shells
 l=0 nsto= 1
    3       1.925000000000        1.000000000000
 l=1 nsto= 1
    3       1.925000000000        1.000000000000
 30 H     1 shells
 l=0 nsto= 1
    1       1.200000000000        1.000000000000
 31 C     2 shells
 l=0 nsto= 1
    2       1.625000000000        1.000000000000
 l=1 nsto= 1
    2       1.625000000000        1.000000000000
 32 C     2 shells
 l=0 nsto= 1
    2       1.625000000000        1.000000000000
 l=1 nsto= 1
    2       1.625000000000        1.000000000000
 33 C     2 shells
 l=0 nsto= 1
    2       1.625000000000        1.000000000000
 l=1 nsto= 1
    2       1.625000000000        1.000000000000
 34 H     1 shells
 l=0 nsto= 1
    1       1.200000000000        1.000000000000
 35 H     1 shells
 l=0 nsto= 1
    1       1.200000000000        1.000000000000
 36 H     1 shells
 l=0 nsto= 1
    1       1.200000000000        1.000000000000
 37 H     1 shells
 l=0 nsto= 1
    1       1.200000000000        1.000000000000
 38 H     1 shells
 l=0 nsto= 1
    1       1.200000000000        1.000000000000
 39 H     1 shells
 l=0 nsto= 1
    1       1.200000000000        1.000000000000
 40 C     2 shells
 l=0 nsto= 1
    2       1.625000000000        1.000000000000
 l=1 nsto= 1
    2       1.625000000000        1.000000000000
 41 C     2 shells
 l=0 nsto= 1
    2       1.625000000000        1.000000000000
 l=1 nsto= 1
    2       1.625000000000        1.000000000000
 42 C     2 shells
 l=0 nsto= 1
    2       1.625000000000        1.000000000000
 l=1 nsto= 1
    2       1.625000000000        1.000000000000
 43 H     1 shells
 l=0 nsto= 1
    1       1.200000000000        1.000000000000
 44 H     1 shells
 l=0 nsto= 1
    1       1.200000000000        1.000000000000
 45 H     1 shells
 l=0 nsto= 1
    1       1.200000000000        1.000000000000
 46 H     1 shells
 l=0 nsto= 1
    1       1.200000000000        1.000000000000
 47 H     1 shells
 l=0 nsto= 1
    1       1.200000000000        1.000000000000
 48 H     1 shells
 l=0 nsto= 1
    1       1.200000000000        1.000000000000
 49 H     1 shells
 l=0 nsto= 1
    1       1.200000000000        1.000000000000
 50 H     1 shells
 l=0 nsto= 1
    1       1.200000000000        1.000000000000
 51 H     1 shells
 l=0 nsto= 1
    1       1.200000000000        1.000000000000
 52 H     1 shells
 l=0 nsto= 1
    1       1.200000000000        1.000000000000
 53 H     1 shells
 l=0 nsto= 1
    1       1.200000000000        1.000000000000
------------------------------------------------------------------------------
                           ORCA NDO INTEGRAL CALCULATION
------------------------------------------------------------------------------

--------------
NDO PARAMETERS
--------------

Gamma integral treatment              ... Mataga-Nishimoto
Nuclear repulsuion treatment          ... Direct (ZA*ZB/RAB)
Interaction factors:
s-s (sigma) =    1.0000
s-p (sigma) =    1.0000
s-d (sigma) =    1.0000
p-p (sigma) =    1.2670  p-p(pi) =    0.5850
p-d (sigma) =    1.0000  p-d(pi) =    1.0000
d-d (sigma) =    1.0000  d-d(pi) =    1.0000 d-d (delta) =    1.0000

fGamma parameter for Mataga-Nishimoto gamma integrals:    1.2000

--------------------------
Parameters for Element H :
--------------------------
 One-electron parameters (in eV)
  U(s)  =   -13.060000 Beta(s) =    12.000000 Neff(s) =     1.000000
 One-center electron repulsion parameters (in eV)
  G(s,s)=    12.850000
--------------------------
Parameters for Element C :
--------------------------
 One-electron parameters (in eV)
  U(s)  =   -50.870766 Beta(s) =    17.000000 Neff(s) =     2.000000
  U(p)  =   -41.599980 Beta(p) =    17.000000 Neff(p) =     2.000000 
 One-center electron repulsion parameters (in eV)
  G(s,s)=    11.110000
  G(s,p)=    11.110000 G(p,p)  =    11.110000
 Slater-Condon parameters (in eV)
 F2(p,p)=     4.5098 G1(s,p)=    6.8977
--------------------------
Parameters for Element S :
--------------------------
 One-electron parameters (in eV)
  U(s)  =   -69.509597 Beta(s) =    15.000000 Neff(s) =     2.000000
  U(p)  =   -60.725746 Beta(p) =    15.000000 Neff(p) =     4.000000 
 One-center electron repulsion parameters (in eV)
  G(s,s)=    10.090000
  G(s,p)=    10.090000 G(p,p)  =    10.090000
 Slater-Condon parameters (in eV)
 F2(p,p)=     4.5377 G1(s,p)=    3.0756

 Number of atoms                    ....   54
 Number of basis functions          ....  120

 Overlap integrals                  .... done
 One electron matrix                .... done
 Nuclear repulsion                  .... done
 Integral list                      .... done
 Electron-electron repulsion        .... done
-------------------------------------------------------------------------------
                                 ORCA SCF
-------------------------------------------------------------------------------

------------
SCF SETTINGS
------------
Hamiltonian:
 ZDO-Hamiltonian        Method          .... INDO


General Settings:
 Integral files         IntName         .... /Users/mattyjones/GoogleDrive/Boise/Code/MorphCT/tests/output_EZ/donor_polymer/chromophores/input_orca/pair/00013-00026
 Hartree-Fock type      HFTyp           .... RHF
 Total Charge           Charge          ....    0
 Multiplicity           Mult            ....    1
 Number of Electrons    NEL             ....  124
 Basis Dimension        Dim             ....  120
 Nuclear Repulsion      ENuc            ....    651.0665146515 Eh

Convergence Acceleration:
 DIIS                   CNVDIIS         .... on
   Start iteration      DIISMaxIt       ....    12
   Startup error        DIISStart       ....  0.200000
   # of expansion vecs  DIISMaxEq       ....     5
   Bias factor          DIISBfac        ....   1.050
   Max. coefficient     DIISMaxC        ....  10.000
 Newton-Raphson         CNVNR           .... off
 SOSCF                  CNVSOSCF        .... on
   Start iteration      SOSCFMaxIt      ....   150
   Startup grad/error   SOSCFStart      ....  0.003300
 Level Shifting         CNVShift        .... on
   Level shift para.    LevelShift      ....    0.2500
   Turn off err/grad.   ShiftErr        ....    0.0010
 Zerner damping         CNVZerner       .... off
 Static damping         CNVDamp         .... on
   Fraction old density DampFac         ....    0.7000
   Max. Damping (<1)    DampMax         ....    0.9800
   Min. Damping (>=0)   DampMin         ....    0.0000
   Turn off err/grad.   DampErr         ....    0.1000
 Fernandez-Rico         CNVRico         .... off

SCF Procedure:
 Maximum # iterations   MaxIter         ....   125
 SCF integral mode      SCFMode         .... Conventional
 Integral Buffer length BufferLength    .... 1048576
 Integral index format  IndFormat       ....     0
 Integral value format  ValFormat       ....     0
 Integral Storage       Thresh          ....  1.000e-08 Eh

Convergence Tolerance:
 Convergence Check Mode ConvCheckMode   .... Total+1el-Energy
 Energy Change          TolE            ....  1.000e-06 Eh
 1-El. energy change                    ....  1.000e-03 Eh
 Orbital Gradient       TolG            ....  5.000e-05
 Orbital Rotation angle TolX            ....  5.000e-05
 DIIS Error             TolErr          ....  1.000e-06


Diagonalization of the overlap matrix:
Smallest eigenvalue                        ... 1.688e-01
Time for diagonalization                   ...    0.003 sec
Threshold for overlap eigenvalues          ... 1.000e-08
Number of eigenvalues below threshold      ... 0
Time for construction of square roots      ...    0.001 sec
Total time needed                          ...    0.004 sec

-------------------------------
INITIAL GUESS: EXTENDED HUECKEL
-------------------------------
EHT matrix was read from disk
EHT matrix was diagonalized
Initial density was built
                      ------------------
                      INITIAL GUESS DONE
                      ------------------

 InCore treatment chosen:
   Memory dedicated               ...    1024 MB
   Memory needed                  ...      0 MB
   Number of tiny    integrals    ...       0
   Number of small   integrals    ...       0
   Number of regular integrals    ...    7392

--------------
SCF ITERATIONS
--------------
ITER       Energy         Delta-E        Max-DP      RMS-DP      [F,P]     Damp
  0    -21.5182473680   0.000000000000 0.04489692  0.00147750  0.1252957 0.7000
  1    -21.5614127111  -0.043165343066 0.04331692  0.00139261  0.0859296 0.7000
                               ***Turning on DIIS***
  2    -21.5932863628  -0.031873651716 0.11279748  0.00357153  0.0523619 0.0000
  3    -21.6761466720  -0.082860309144 0.02000762  0.00073890  0.0225575 0.0000
  4    -21.6609846641   0.015162007830 0.01440231  0.00051260  0.0087268 0.0000
  5    -21.6786084639  -0.017623799749 0.01017506  0.00034842  0.0051523 0.0000
  6    -21.6807530983  -0.002144634459 0.00723000  0.00024981  0.0028382 0.0000
                      *** Initiating the SOSCF procedure ***
                           *** Shutting down DIIS ***
                      *** Re-Reading the Fockian *** 
                      *** Removing any level shift *** 
ITER      Energy       Delta-E        Grad      Rot      Max-DP    RMS-DP
  7    -21.67701777   0.0037353281  0.003234  0.003234  0.004016  0.000143
  8    -21.67484301   0.0021747642  0.000947  0.002692  0.002099  0.000068
  9    -21.67486029  -0.0000172814  0.000418  0.002703  0.002437  0.000075
 10    -21.67486695  -0.0000066675  0.000042  0.000083  0.000127  0.000005
                 **** Energy Check signals convergence ****
              ***Rediagonalizing the Fockian in SOSCF/NRSCF***

               *****************************************************
               *                     SUCCESS                       *
               *           SCF CONVERGED AFTER  11 CYCLES          *
               *****************************************************


----------------
TOTAL SCF ENERGY
----------------

Total Energy       :          -21.67486702 Eh            -589.80312 eV

Components:
Nuclear Repulsion  :          651.06651465 Eh           17716.42055 eV
Electronic Energy  :         -672.74138167 Eh          -18306.22367 eV

One Electron Energy:        -1255.08067132 Eh          -34152.48135 eV
Two Electron Energy:          582.33928964 Eh           15846.25768 eV


---------------
SCF CONVERGENCE
---------------

  Last Energy change         ...   -6.8454e-08  Tolerance :   1.0000e-06
  Last MAX-Density change    ...    6.4363e-05  Tolerance :   1.0000e-05
  Last RMS-Density change    ...    1.7577e-06  Tolerance :   1.0000e-06
  Last Orbital Gradient      ...    1.9194e-05  Tolerance :   5.0000e-05
  Last Orbital Rotation      ...    3.7634e-05  Tolerance :   5.0000e-05

             **** THE GBW FILE WAS UPDATED (/Users/mattyjones/GoogleDrive/Boise/Code/MorphCT/tests/output_EZ/donor_polymer/chromophores/input_orca/pair/00013-00026.gbw) ****
             **** DENSITY FILE WAS UPDATED (/Users/mattyjones/GoogleDrive/Boise/Code/MorphCT/tests/output_EZ/donor_polymer/chromophores/input_orca/pair/00013-00026.scfp.tmp) ****
             **** ENERGY FILE WAS UPDATED (/Users/mattyjones/GoogleDrive/Boise/Code/MorphCT/tests/output_EZ/donor_polymer/chromophores/input_orca/pair/00013-00026.en.tmp) ****
----------------
ORBITAL ENERGIES
----------------

  NO   OCC          E(Eh)            E(eV) 
   0   2.0000      -1.562107       -42.5071 
   1   2.0000      -1.556224       -42.3470 
   2   2.0000      -1.409628       -38.3579 
   3   2.0000      -1.404494       -38.2182 
   4   2.0000      -1.289070       -35.0774 
   5   2.0000      -1.285392       -34.9773 
   6   2.0000      -1.181134       -32.1403 
   7   2.0000      -1.174583       -31.9620 
   8   2.0000      -1.112322       -30.2678 
   9   2.0000      -1.110309       -30.2130 
  10   2.0000      -1.046006       -28.4633 
  11   2.0000      -1.041746       -28.3474 
  12   2.0000      -0.965702       -26.2781 
  13   2.0000      -0.965387       -26.2695 
  14   2.0000      -0.916985       -24.9524 
  15   2.0000      -0.910553       -24.7774 
  16   2.0000      -0.835547       -22.7364 
  17   2.0000      -0.829823       -22.5806 
  18   2.0000      -0.828560       -22.5463 
  19   2.0000      -0.824221       -22.4282 
  20   2.0000      -0.776833       -21.1387 
  21   2.0000      -0.768547       -20.9132 
  22   2.0000      -0.732506       -19.9325 
  23   2.0000      -0.725079       -19.7304 
  24   2.0000      -0.718046       -19.5390 
  25   2.0000      -0.701463       -19.0878 
  26   2.0000      -0.693628       -18.8746 
  27   2.0000      -0.679523       -18.4908 
  28   2.0000      -0.647121       -17.6091 
  29   2.0000      -0.633251       -17.2316 
  30   2.0000      -0.613103       -16.6834 
  31   2.0000      -0.606030       -16.4909 
  32   2.0000      -0.599800       -16.3214 
  33   2.0000      -0.593749       -16.1567 
  34   2.0000      -0.578211       -15.7339 
  35   2.0000      -0.577474       -15.7139 
  36   2.0000      -0.572987       -15.5918 
  37   2.0000      -0.559357       -15.2209 
  38   2.0000      -0.544258       -14.8100 
  39   2.0000      -0.537345       -14.6219 
  40   2.0000      -0.535436       -14.5700 
  41   2.0000      -0.531682       -14.4678 
  42   2.0000      -0.524579       -14.2745 
  43   2.0000      -0.521091       -14.1796 
  44   2.0000      -0.504335       -13.7236 
  45   2.0000      -0.503713       -13.7067 
  46   2.0000      -0.498099       -13.5540 
  47   2.0000      -0.497655       -13.5419 
  48   2.0000      -0.489677       -13.3248 
  49   2.0000      -0.487431       -13.2637 
  50   2.0000      -0.479854       -13.0575 
  51   2.0000      -0.472807       -12.8657 
  52   2.0000      -0.470544       -12.8041 
  53   2.0000      -0.468366       -12.7449 
  54   2.0000      -0.464290       -12.6340 
  55   2.0000      -0.455981       -12.4079 
  56   2.0000      -0.437833       -11.9140 
  57   2.0000      -0.434580       -11.8255 
  58   2.0000      -0.356934        -9.7127 
  59   2.0000      -0.348932        -9.4949 
  60   2.0000      -0.304744        -8.2925 
  61   2.0000      -0.304425        -8.2838 
  62   0.0000       0.002779         0.0756 
  63   0.0000       0.007876         0.2143 
  64   0.0000       0.058456         1.5907 
  65   0.0000       0.068041         1.8515 
  66   0.0000       0.076909         2.0928 
  67   0.0000       0.078020         2.1230 
  68   0.0000       0.090131         2.4526 
  69   0.0000       0.092353         2.5131 
  70   0.0000       0.103592         2.8189 
  71   0.0000       0.104591         2.8461 
  72   0.0000       0.107843         2.9345 
  73   0.0000       0.108001         2.9388 
  74   0.0000       0.121887         3.3167 
  75   0.0000       0.125320         3.4101 
  76   0.0000       0.141871         3.8605 
  77   0.0000       0.144672         3.9367 
  78   0.0000       0.158383         4.3098 
  79   0.0000       0.158702         4.3185 
  80   0.0000       0.163984         4.4622 
  81   0.0000       0.166387         4.5276 
  82   0.0000       0.169895         4.6231 
  83   0.0000       0.179421         4.8823 
  84   0.0000       0.199704         5.4342 
  85   0.0000       0.205460         5.5908 
  86   0.0000       0.233090         6.3427 
  87   0.0000       0.233206         6.3459 
  88   0.0000       0.234143         6.3714 
  89   0.0000       0.236791         6.4434 
  90   0.0000       0.237576         6.4648 
  91   0.0000       0.238196         6.4816 
  92   0.0000       0.238782         6.4976 
  93   0.0000       0.239606         6.5200 
  94   0.0000       0.241116         6.5611 
  95   0.0000       0.242053         6.5866 
  96   0.0000       0.243080         6.6145 
  97   0.0000       0.243305         6.6207 
  98   0.0000       0.244366         6.6495 
  99   0.0000       0.245199         6.6722 
 100   0.0000       0.250743         6.8231 
 101   0.0000       0.256007         6.9663 
 102   0.0000       0.257273         7.0007 
 103   0.0000       0.260306         7.0833 
 104   0.0000       0.265808         7.2330 
 105   0.0000       0.267058         7.2670 
 106   0.0000       0.283639         7.7182 
 107   0.0000       0.285611         7.7719 
 108   0.0000       0.304923         8.2974 
 109   0.0000       0.306944         8.3524 
 110   0.0000       0.309412         8.4195 
 111   0.0000       0.310364         8.4454 
 112   0.0000       0.336373         9.1532 
 113   0.0000       0.339389         9.2352 
 114   0.0000       0.352112         9.5814 
 115   0.0000       0.353659         9.6236 
 116   0.0000       0.409245        11.1361 
 117   0.0000       0.411938        11.2094 
 118   0.0000       0.430797        11.7226 
 119   0.0000       0.431039        11.7292 
-------
TIMINGS
-------

Total SCF time: 0 days 0 hours 0 min 0 sec 

Total time                  ....       0.158 sec
Sum of individual times     ....       0.135 sec  ( 85.8%)

Fock matrix formation       ....       0.050 sec  ( 31.8%)
Diagonalization             ....       0.022 sec  ( 14.3%)
Density matrix formation    ....       0.005 sec  (  3.2%)
Population analysis         ....       0.000 sec  (  0.0%)
Initial guess               ....       0.003 sec  (  2.0%)
Orbital Transformation      ....       0.000 sec  (  0.0%)
Orbital Orthonormalization  ....       0.000 sec  (  0.0%)
DIIS solution               ....       0.049 sec  ( 30.9%)
SOSCF solution              ....       0.006 sec  (  3.6%)

-------------------------   --------------------
FINAL SINGLE POINT ENERGY       -21.674867023376
-------------------------   --------------------


                            ***************************************
                            *     ORCA property calculations      *
                            ***************************************

                                    ---------------------
                                    Active property flags
                                    ---------------------
   (+) Dipole Moment


------------------------------------------------------------------------------
                       ORCA ELECTRIC PROPERTIES CALCULATION
------------------------------------------------------------------------------

Dipole Moment Calculation                       ... on
Quadrupole Moment Calculation                   ... off
Polarizability Calculation                      ... off
GBWName                                         ... /Users/mattyjones/GoogleDrive/Boise/Code/MorphCT/tests/output_EZ/donor_polymer/chromophores/input_orca/pair/00013-00026.gbw
Electron density file                           ... /Users/mattyjones/GoogleDrive/Boise/Code/MorphCT/tests/output_EZ/donor_polymer/chromophores/input_orca/pair/00013-00026.scfp.tmp

-------------
DIPOLE MOMENT
-------------
                                X             Y             Z
Electronic contribution:   -212.38727    -122.00151     -17.16098
Nuclear contribution   :    112.62845      64.12718       9.54661
                        -----------------------------------------
Total Dipole Moment    :    -99.75881     -57.87433      -7.61436
                        -----------------------------------------
Magnitude (a.u.)       :    115.58217
Magnitude (Debye)      :    293.78652


Timings for individual modules:

Sum of individual times         ...        0.256 sec (=   0.004 min)
STO integral calculation        ...        0.050 sec (=   0.001 min)  19.5 %
SCF iterations                  ...        0.206 sec (=   0.003 min)  80.5 %
                             ****ORCA TERMINATED NORMALLY****
TOTAL RUN TIME: 0 days 0 hours 0 minutes 0 seconds 568 msec

