
                                 *****************
                                 * O   R   C   A *
                                 *****************

           --- An Ab Initio, DFT and Semiempirical electronic structure package ---

                  #######################################################
                  #                        -***-                        #
                  #  Department of molecular theory and spectroscopy    #
                  #              Directorship: Frank Neese              #
                  # Max Planck Institute for Chemical Energy Conversion #
                  #                  D-45470 Muelheim/Ruhr              #
                  #                       Germany                       #
                  #                                                     #
                  #                  All rights reserved                #
                  #                        -***-                        #
                  #######################################################


                         Program Version 3.0.3 - RELEASE   -


 With contributions from (in alphabetic order):
   Ute Becker             : Parallelization
   Dmytro Bykov           : SCF Hessian
   Dmitry Ganyushin       : Spin-Orbit,Spin-Spin,Magnetic field MRCI
   Andreas Hansen         : Spin unrestricted coupled pair/coupled cluster methods
   Dimitrios Liakos       : Extrapolation schemes; parallel MDCI
   Robert Izsak           : Overlap fitted RIJCOSX, COSX-SCS-MP3
   Christian Kollmar      : KDIIS, OOCD, Brueckner-CCSD(T), CCSD density
   Simone Kossmann        : Meta GGA functionals, TD-DFT gradient, OOMP2, MP2 Hessian
   Taras Petrenko         : DFT Hessian,TD-DFT gradient, ASA and ECA modules, normal mode analysis, Resonance Raman, ABS, FL, XAS/XES, NRVS
   Christoph Reimann      : Effective Core Potentials
   Michael Roemelt        : Restricted open shell CIS
   Christoph Riplinger    : Improved optimizer, TS searches, QM/MM, DLPNO-CCSD
   Barbara Sandhoefer     : DKH picture change effects
   Igor Schapiro          : Molecular dynamics
   Kantharuban Sivalingam : CASSCF convergence, NEVPT2
   Boris Wezisla          : Elementary symmetry handling
   Frank Wennmohs         : Technical directorship


 We gratefully acknowledge several colleagues who have allowed us to
 interface, adapt or use parts of their codes:
   Stefan Grimme, W. Hujo, H. Kruse, T. Risthaus : VdW corrections, initial TS optimization,
                                                   DFT functionals, gCP
   Ed Valeev                                     : LibInt (2-el integral package), F12 methods
   Garnet Chan, S. Sharma, R. Olivares           : DMRG
   Ulf Ekstrom                                   : XCFun DFT Library
   Mihaly Kallay                                 : mrcc  (arbitrary order and MRCC methods)
   Andreas Klamt, Michael Diedenhofen            : otool_cosmo (COSMO solvation model)
   Frank Weinhold                                : gennbo (NPA and NBO analysis)
   Christopher J. Cramer and Donald G. Truhlar   : smd solvation model


 Your calculation uses the libint2 library for the computation of 2-el integrals
 For citations please refer to: http://libint.valeyev.net

 This ORCA versions uses:
   CBLAS   interface :  Fast vector & matrix operations
   LAPACKE interface :  Fast linear algebra routines
   SCALAPACK package :  Parallel linear algebra routines


leaving
================================================================================
                                        WARNINGS
                       Please study these warnings very carefully!
================================================================================
Now building the actual basis set

WARNING: Direct SCF is incompatible with Method<>HF and Method<>DFT
  ===> : conventional SCF is chosen

WARNING: The NDO methods need Guess=HUECKEL or Guess=HCORE or Guess=MOREAD
  ===> : Guess is set to Hueckel

WARNING: The NDO methods need %rel::SOCType==1
  ===> : %rel::SOCType is set to 1

WARNING: The NDO methods cannot have frozencore=1
  ===> : %method FrozenCore=0 end


INFO   : the flag for use of LIBINT has been found!

================================================================================
                                       INPUT FILE
================================================================================
NAME = /Users/mattyjones/GoogleDrive/Boise/Code/MorphCT/tests/output_EZ/donor_polymer/chromophores/input_orca/pair/00012-00014.inp
|  1> # ================================================================
|  2> # Orca input file made by Matty Jones
|  3> # ================================================================
|  4> ! ZINDO/S 
|  5> ! NOPOP
|  6> ! NOMOPRINT
|  7> * xyz 0   1
|  8>  C  -0.02525  6.67336  -5.89545
|  9>  C  -0.27564  5.30153  -5.95265
| 10>  C  0.00826  4.60501  -4.73670
| 11>  C  0.48523  5.43102  -3.71420
| 12>  S  0.52997  6.95819  -4.35932
| 13>  H  -0.68665  4.77399  -6.87931
| 14>  C  -0.22456  2.99639  -4.64868
| 15>  C  -0.60889  1.96723  -3.30895
| 16>  C  -2.18772  1.72142  -2.73510
| 17>  H  -2.53413  2.72997  -2.28412
| 18>  H  -2.85023  1.47598  -3.64877
| 19>  H  0.09246  2.14926  -2.43466
| 20>  H  -0.32409  0.91326  -3.72853
| 21>  H  0.74990  2.49764  -5.06427
| 22>  H  -1.08573  2.73661  -5.39610
| 23>  C  -2.36969  0.55778  -1.60039
| 24>  C  -2.76233  -0.98272  -2.19546
| 25>  C  -1.45760  -1.99123  -2.52872
| 26>  H  -0.51459  -1.35323  -2.73193
| 27>  H  -1.69990  -2.63354  -3.46082
| 28>  H  -1.26944  -2.68467  -1.62077
| 29>  H  -3.36317  -0.84341  -3.16914
| 30>  H  -3.42488  -1.50639  -1.41039
| 31>  H  -1.39170  0.45355  -0.99271
| 32>  H  -3.22074  0.86290  -0.87765
| 33>  C  2.80935  2.17709  0.67473
| 34>  C  2.08555  1.16560  1.30792
| 35>  C  2.89528  0.22460  2.01724
| 36>  C  4.26536  0.49442  1.94379
| 37>  S  4.40089  1.86378  1.01811
| 38>  H  0.94733  1.08510  1.27646
| 39>  C  2.32460  -1.05588  2.83518
| 40>  C  0.99109  -0.94704  3.90453
| 41>  C  0.60898  -2.39848  4.73881
| 42>  H  0.30050  -2.02198  5.79700
| 43>  H  1.63102  -2.93900  4.84165
| 44>  H  0.07160  -0.65723  3.27713
| 45>  H  1.21785  -0.13426  4.68193
| 46>  H  3.18849  -1.48361  3.49881
| 47>  H  2.03359  -1.88358  2.07315
| 48>  C  -0.49049  -3.54819  4.34489
| 49>  C  -0.15878  -5.00013  5.17954
| 50>  C  -1.20766  -6.30629  5.00082
| 51>  H  -1.24276  -6.63009  3.89161
| 52>  H  -2.26494  -5.99842  5.35460
| 53>  H  -0.82425  -7.18722  5.64892
| 54>  H  0.87410  -5.35451  4.80159
| 55>  H  -0.08852  -4.75380  6.30252
| 56>  H  -0.48584  -3.75625  3.21389
| 57>  H  -1.54600  -3.20643  4.66965
| 58>  H  -0.16134  7.38343  -6.67061
| 59>  H  0.76057  5.14167  -2.73233
| 60>  H  2.42303  2.97694  0.09629
| 61>  H  5.05251  -0.06017  2.38698
| 62> *
| 63> 
| 64>                          ****END OF INPUT****
================================================================================

                       ****************************
                       * Single Point Calculation *
                       ****************************

---------------------------------
CARTESIAN COORDINATES (ANGSTROEM)
---------------------------------
  C     -0.025250    6.673360   -5.895450
  C     -0.275640    5.301530   -5.952650
  C      0.008260    4.605010   -4.736700
  C      0.485230    5.431020   -3.714200
  S      0.529970    6.958190   -4.359320
  H     -0.686650    4.773990   -6.879310
  C     -0.224560    2.996390   -4.648680
  C     -0.608890    1.967230   -3.308950
  C     -2.187720    1.721420   -2.735100
  H     -2.534130    2.729970   -2.284120
  H     -2.850230    1.475980   -3.648770
  H      0.092460    2.149260   -2.434660
  H     -0.324090    0.913260   -3.728530
  H      0.749900    2.497640   -5.064270
  H     -1.085730    2.736610   -5.396100
  C     -2.369690    0.557780   -1.600390
  C     -2.762330   -0.982720   -2.195460
  C     -1.457600   -1.991230   -2.528720
  H     -0.514590   -1.353230   -2.731930
  H     -1.699900   -2.633540   -3.460820
  H     -1.269440   -2.684670   -1.620770
  H     -3.363170   -0.843410   -3.169140
  H     -3.424880   -1.506390   -1.410390
  H     -1.391700    0.453550   -0.992710
  H     -3.220740    0.862900   -0.877650
  C      2.809350    2.177090    0.674730
  C      2.085550    1.165600    1.307920
  C      2.895280    0.224600    2.017240
  C      4.265360    0.494420    1.943790
  S      4.400890    1.863780    1.018110
  H      0.947330    1.085100    1.276460
  C      2.324600   -1.055880    2.835180
  C      0.991090   -0.947040    3.904530
  C      0.608980   -2.398480    4.738810
  H      0.300500   -2.021980    5.797000
  H      1.631020   -2.939000    4.841650
  H      0.071600   -0.657230    3.277130
  H      1.217850   -0.134260    4.681930
  H      3.188490   -1.483610    3.498810
  H      2.033590   -1.883580    2.073150
  C     -0.490490   -3.548190    4.344890
  C     -0.158780   -5.000130    5.179540
  C     -1.207660   -6.306290    5.000820
  H     -1.242760   -6.630090    3.891610
  H     -2.264940   -5.998420    5.354600
  H     -0.824250   -7.187220    5.648920
  H      0.874100   -5.354510    4.801590
  H     -0.088520   -4.753800    6.302520
  H     -0.485840   -3.756250    3.213890
  H     -1.546000   -3.206430    4.669650
  H     -0.161340    7.383430   -6.670610
  H      0.760570    5.141670   -2.732330
  H      2.423030    2.976940    0.096290
  H      5.052510   -0.060170    2.386980

----------------------------
CARTESIAN COORDINATES (A.U.)
----------------------------
  NO LB      ZA    FRAG    MASS        X           Y           Z
   0 C     4.0000    0    12.011         -0.047715584881512         12.610822793064724        -11.140785936226044
   1 C     4.0000    0    12.011         -0.520884111554054         10.018439790767532        -11.248878271086339
   2 C     4.0000    0    12.011          0.015609137866190          8.702207743968703         -8.951065778544793
   3 C     4.0000    0    12.011          0.916951811962609         10.263140427848997         -7.018820806610313
   4 S     6.0000    0    32.060          1.001498159194246         13.149073487789515         -8.237920930125592
   5 H     1.0000    0     1.008         -1.297580449857027          9.021533666078717        -13.000011890345807
   6 C     4.0000    0    12.011         -0.424356900633356          5.662356490420299         -8.784732084237044
   7 C     4.0000    0    12.011         -1.150635345683311          3.717525942433904         -6.253009290838725
   8 C     4.0000    0    12.011         -4.134191657702201          3.253012361454721         -5.168589948888015
   9 H     1.0000    0     1.008         -4.788811687753862          5.158895653820999         -4.316361257012209
  10 H     1.0000    0     1.008         -5.386154118686369          2.789197979145089         -6.895176025667845
  11 H     1.0000    0     1.008          0.174724078342359          4.061512790591589         -4.600840629212715
  12 H     1.0000    0     1.008         -0.612441342742538          1.725811289064922         -7.045900582109405
  13 H     1.0000    0     1.008          1.417105627827547          4.719855581127075         -9.570083368233377
  14 H     1.0000    0     1.008         -2.051732355382321          5.171443435350237        -10.197151191252466
  15 C     4.0000    0    12.011         -4.478065122291850          1.054051442978596         -3.024298807466232
  16 C     4.0000    0    12.011         -5.220047191514691         -1.857071666327093         -4.148818137978751
  17 C     4.0000    0    12.011         -2.754464812803616         -3.762879369648014         -4.778588269369347
  18 H     1.0000    0     1.008         -0.972434171254537         -2.557234096206255         -5.162599517043486
  19 H     1.0000    0     1.008         -3.212345455052735         -4.976669362726973         -6.540001998797346
  20 H     1.0000    0     1.008         -2.398893943444993         -5.073291059954367         -3.062811426075547
  21 H     1.0000    0     1.008         -6.355470241819936         -1.593813918610523         -5.988806680055196
  22 H     1.0000    0     1.008         -6.472085241544216         -2.846664550877634         -2.665250842021194
  23 H     1.0000    0     1.008         -2.629931860578206          0.857085288039984         -1.875950030404966
  24 H     1.0000    0     1.008         -6.086316548565533          1.630644680960648         -1.658518141435987
  25 C     4.0000    0    12.011          5.308902114331668          4.114103868898618          1.275054914340686
  26 C     4.0000    0    12.011          3.941118338599467          2.202664781698611          2.471610605078284
  27 C     4.0000    0    12.011          5.471286281019522          0.424432489678713          3.812031146391306
  28 C     4.0000    0    12.011          8.060362262582350          0.934318395133345          3.673230761854790
  29 S     6.0000    0    32.060          8.316476845512698          3.522033773879750          1.923949074206566
  30 H     1.0000    0     1.008          1.790194258447619          2.050541827917950          2.412159820905121
  31 C     4.0000    0    12.011          4.392857370913342         -1.995324030284771          5.357713740370854
  32 C     4.0000    0    12.011          1.872888674068013         -1.789646237868782          7.378492381679544
  33 C     4.0000    0    12.011          1.150805421035364         -4.532470337687444          8.955053100687367
  34 H     1.0000    0     1.008          0.567862703243336         -3.820988448266093         10.954742398341496
  35 H     1.0000    0     1.008          3.082181118948240         -5.553905107594558          9.149392536299827
  36 H     1.0000    0     1.008          0.135304391188762         -1.241984706997064          6.192878205257352
  37 H     1.0000    0     1.008          2.301402972195997         -0.253714630740267          8.847565478189926
  38 H     1.0000    0     1.008          6.025372880746572         -2.803616589546909          6.611792694625015
  39 H     1.0000    0     1.008          3.842928168680918         -3.559450351331391          3.917685734538843
  40 C     4.0000    0    12.011         -0.926891771427035         -6.705107371118046          8.210652182013108
  41 C     4.0000    0    12.011         -0.300050715544016         -9.448876334003669          9.787912099690480
  42 C     4.0000    0    12.011         -2.282146662891339        -11.917161021086249          9.450180245036075
  43 H     1.0000    0     1.008         -2.348476050191975        -12.529054343249951          7.354077120029282
  44 H     1.0000    0     1.008         -4.280116309763600        -11.335371036235914         10.118727556694733
  45 H     1.0000    0     1.008         -1.557606765884592        -13.581877464241499         10.674911752430438
  46 H     1.0000    0     1.008          1.651809613660566        -10.118557481342682          9.073690107374944
  47 H     1.0000    0     1.008         -0.167278557374709         -8.983380095434846         11.910036753561368
  48 H     1.0000    0     1.008         -0.918104544904301         -7.098283790541702          6.073371924548172
  49 H     1.0000    0     1.008         -2.921516603042255         -6.059274567589119          8.824359641265373
  50 H     1.0000    0     1.008         -0.304888414446855         13.952660628978187        -12.605626046196440
  51 H     1.0000    0     1.008          1.437269005676486          9.716348170998883         -5.163355407497054
  52 H     1.0000    0     1.008          4.578863114275210          5.625601317115531          0.181961729435277
  53 H     1.0000    0     1.008          9.547860188898463         -0.113704821478042          4.510738487147349

--------------------------------
INTERNAL COORDINATES (ANGSTROEM)
--------------------------------
 C      0   0   0   0.000000     0.000     0.000
 C      1   0   0   1.395666     0.000     0.000
 C      2   1   0   1.429781   114.101     0.000
 C      3   2   1   1.398320   113.693     0.000
 S      1   2   3   1.658039   105.480     0.000
 H      2   1   3   1.142771   123.470   179.095
 C      3   2   1   1.627763   119.934   180.365
 C      7   3   2   1.732558   131.343   208.213
 C      8   7   3   1.697772   123.618    83.446
 H      9   8   7   1.157824   106.485   292.609
 H      9   8   7   1.154969   107.266    48.918
 H      8   7   3   1.135522   111.293   309.506
 H      8   7   3   1.169620   101.763   197.331
 H      7   3   2   1.170914   106.422    85.157
 H      7   3   2   1.169502   106.875   331.151
 C      9   8   7   1.635463   116.167   171.754
 C     16   9   8   1.697473   115.355   267.232
 C     17  16   9   1.682402   115.726    91.190
 H     18  17  16   1.156549   109.661   335.779
 H     18  17  16   1.157619   109.255   215.652
 H     18  17  16   1.157859   109.251    95.933
 H     17  16   9   1.152592   107.881   330.105
 H     17  16   9   1.153056   107.842   212.156
 H     16   9   8   1.156116   109.555    28.457
 H     16   9   8   1.157470   109.116   147.126
 C     12   8   7   4.129234   170.842   240.148
 C     26  12   8   1.395682    89.743   301.332
 C     27  26  12   1.429783   114.101   144.549
 C     28  27  26   1.398326   113.693     0.000
 S     26  12   8   1.658033   141.837    56.561
 H     27  26  12   1.141497   123.760   324.262
 C     28  27  26   1.623062   124.758   180.413
 C     32  28  27   1.712777   122.565   313.872
 C     33  32  28   1.717181   115.016   183.487
 H     34  33  32   1.164765   103.127   142.263
 H     34  33  32   1.160734   103.929    30.014
 H     33  32  28   1.150253   107.328    63.983
 H     33  32  28   1.147337   108.311   304.746
 H     32  28  27   1.170326   108.334   192.774
 H     32  28  27   1.162095   108.633    76.592
 C     34  33  32   1.638853   128.717   264.873
 C     41  34  33   1.707279   110.411   161.876
 C     42  41  34   1.684679   119.113   176.658
 H     43  42  41   1.156039   109.746    60.801
 H     43  42  41   1.156627   109.287   300.227
 H     43  42  41   1.158911   108.908   180.652
 H     42  41  34   1.155540   105.937   296.468
 H     42  41  34   1.151824   107.855    53.372
 H     41  34  33   1.149988   111.137    40.747
 H     41  34  33   1.156015   109.732   279.514
 H      1   2   3   1.059997   127.260   180.000
 H      4   3   2   1.060002   127.207   180.001
 H     26  12   8   1.059998    49.787   158.525
 H     29  28  27   1.059996   127.206   179.999

---------------------------
INTERNAL COORDINATES (A.U.)
---------------------------
 C      0   0   0   0.000000     0.000     0.000
 C      1   0   0   2.637427     0.000     0.000
 C      2   1   0   2.701895   114.101     0.000
 C      3   2   1   2.642442   113.693     0.000
 S      1   2   3   3.133239   105.480     0.000
 H      2   1   3   2.159525   123.470   179.095
 C      3   2   1   3.076025   119.934   180.365
 C      7   3   2   3.274060   131.343   208.213
 C      8   7   3   3.208325   123.618    83.446
 H      9   8   7   2.187970   106.485   292.609
 H      9   8   7   2.182575   107.266    48.918
 H      8   7   3   2.145825   111.293   309.506
 H      8   7   3   2.210262   101.763   197.331
 H      7   3   2   2.212706   106.422    85.157
 H      7   3   2   2.210039   106.875   331.151
 C      9   8   7   3.090576   116.167   171.754
 C     16   9   8   3.207759   115.355   267.232
 C     17  16   9   3.179278   115.726    91.190
 H     18  17  16   2.185561   109.661   335.779
 H     18  17  16   2.187583   109.255   215.652
 H     18  17  16   2.188036   109.251    95.933
 H     17  16   9   2.178084   107.881   330.105
 H     17  16   9   2.178960   107.842   212.156
 H     16   9   8   2.184742   109.555    28.457
 H     16   9   8   2.187302   109.116   147.126
 C     12   8   7   7.803121   170.842   240.148
 C     26  12   8   2.637457    89.743   301.332
 C     27  26  12   2.701898   114.101   144.549
 C     28  27  26   2.642454   113.693     0.000
 S     26  12   8   3.133228   141.837    56.561
 H     27  26  12   2.157116   123.760   324.262
 C     28  27  26   3.067143   124.758   180.413
 C     32  28  27   3.236679   122.565   313.872
 C     33  32  28   3.245001   115.016   183.487
 H     34  33  32   2.201087   103.127   142.263
 H     34  33  32   2.193470   103.929    30.014
 H     33  32  28   2.173664   107.328    63.983
 H     33  32  28   2.168153   108.311   304.746
 H     32  28  27   2.211596   108.334   192.774
 H     32  28  27   2.196041   108.633    76.592
 C     34  33  32   3.096984   128.717   264.873
 C     41  34  33   3.226290   110.411   161.876
 C     42  41  34   3.183582   119.113   176.658
 H     43  42  41   2.184596   109.746    60.801
 H     43  42  41   2.185708   109.287   300.227
 H     43  42  41   2.190024   108.908   180.652
 H     42  41  34   2.183654   105.937   296.468
 H     42  41  34   2.176632   107.855    53.372
 H     41  34  33   2.173162   111.137    40.747
 H     41  34  33   2.184551   109.732   279.514
 H      1   2   3   2.003103   127.260   180.000
 H      4   3   2   2.003113   127.207   180.001
 H     26  12   8   2.003106    49.787   158.525
 H     29  28  27   2.003103   127.206   179.999

----------------------------
SLATER BASIS SET DIM= 120
----------------------------
  0 C     2 shells
 l=0 nsto= 1
    2       1.625000000000        1.000000000000
 l=1 nsto= 1
    2       1.625000000000        1.000000000000
  1 C     2 shells
 l=0 nsto= 1
    2       1.625000000000        1.000000000000
 l=1 nsto= 1
    2       1.625000000000        1.000000000000
  2 C     2 shells
 l=0 nsto= 1
    2       1.625000000000        1.000000000000
 l=1 nsto= 1
    2       1.625000000000        1.000000000000
  3 C     2 shells
 l=0 nsto= 1
    2       1.625000000000        1.000000000000
 l=1 nsto= 1
    2       1.625000000000        1.000000000000
  4 S     2 shells
 l=0 nsto= 1
    3       1.925000000000        1.000000000000
 l=1 nsto= 1
    3       1.925000000000        1.000000000000
  5 H     1 shells
 l=0 nsto= 1
    1       1.200000000000        1.000000000000
  6 C     2 shells
 l=0 nsto= 1
    2       1.625000000000        1.000000000000
 l=1 nsto= 1
    2       1.625000000000        1.000000000000
  7 C     2 shells
 l=0 nsto= 1
    2       1.625000000000        1.000000000000
 l=1 nsto= 1
    2       1.625000000000        1.000000000000
  8 C     2 shells
 l=0 nsto= 1
    2       1.625000000000        1.000000000000
 l=1 nsto= 1
    2       1.625000000000        1.000000000000
  9 H     1 shells
 l=0 nsto= 1
    1       1.200000000000        1.000000000000
 10 H     1 shells
 l=0 nsto= 1
    1       1.200000000000        1.000000000000
 11 H     1 shells
 l=0 nsto= 1
    1       1.200000000000        1.000000000000
 12 H     1 shells
 l=0 nsto= 1
    1       1.200000000000        1.000000000000
 13 H     1 shells
 l=0 nsto= 1
    1       1.200000000000        1.000000000000
 14 H     1 shells
 l=0 nsto= 1
    1       1.200000000000        1.000000000000
 15 C     2 shells
 l=0 nsto= 1
    2       1.625000000000        1.000000000000
 l=1 nsto= 1
    2       1.625000000000        1.000000000000
 16 C     2 shells
 l=0 nsto= 1
    2       1.625000000000        1.000000000000
 l=1 nsto= 1
    2       1.625000000000        1.000000000000
 17 C     2 shells
 l=0 nsto= 1
    2       1.625000000000        1.000000000000
 l=1 nsto= 1
    2       1.625000000000        1.000000000000
 18 H     1 shells
 l=0 nsto= 1
    1       1.200000000000        1.000000000000
 19 H     1 shells
 l=0 nsto= 1
    1       1.200000000000        1.000000000000
 20 H     1 shells
 l=0 nsto= 1
    1       1.200000000000        1.000000000000
 21 H     1 shells
 l=0 nsto= 1
    1       1.200000000000        1.000000000000
 22 H     1 shells
 l=0 nsto= 1
    1       1.200000000000        1.000000000000
 23 H     1 shells
 l=0 nsto= 1
    1       1.200000000000        1.000000000000
 24 H     1 shells
 l=0 nsto= 1
    1       1.200000000000        1.000000000000
 25 C     2 shells
 l=0 nsto= 1
    2       1.625000000000        1.000000000000
 l=1 nsto= 1
    2       1.625000000000        1.000000000000
 26 C     2 shells
 l=0 nsto= 1
    2       1.625000000000        1.000000000000
 l=1 nsto= 1
    2       1.625000000000        1.000000000000
 27 C     2 shells
 l=0 nsto= 1
    2       1.625000000000        1.000000000000
 l=1 nsto= 1
    2       1.625000000000        1.000000000000
 28 C     2 shells
 l=0 nsto= 1
    2       1.625000000000        1.000000000000
 l=1 nsto= 1
    2       1.625000000000        1.000000000000
 29 S     2 shells
 l=0 nsto= 1
    3       1.925000000000        1.000000000000
 l=1 nsto= 1
    3       1.925000000000        1.000000000000
 30 H     1 shells
 l=0 nsto= 1
    1       1.200000000000        1.000000000000
 31 C     2 shells
 l=0 nsto= 1
    2       1.625000000000        1.000000000000
 l=1 nsto= 1
    2       1.625000000000        1.000000000000
 32 C     2 shells
 l=0 nsto= 1
    2       1.625000000000        1.000000000000
 l=1 nsto= 1
    2       1.625000000000        1.000000000000
 33 C     2 shells
 l=0 nsto= 1
    2       1.625000000000        1.000000000000
 l=1 nsto= 1
    2       1.625000000000        1.000000000000
 34 H     1 shells
 l=0 nsto= 1
    1       1.200000000000        1.000000000000
 35 H     1 shells
 l=0 nsto= 1
    1       1.200000000000        1.000000000000
 36 H     1 shells
 l=0 nsto= 1
    1       1.200000000000        1.000000000000
 37 H     1 shells
 l=0 nsto= 1
    1       1.200000000000        1.000000000000
 38 H     1 shells
 l=0 nsto= 1
    1       1.200000000000        1.000000000000
 39 H     1 shells
 l=0 nsto= 1
    1       1.200000000000        1.000000000000
 40 C     2 shells
 l=0 nsto= 1
    2       1.625000000000        1.000000000000
 l=1 nsto= 1
    2       1.625000000000        1.000000000000
 41 C     2 shells
 l=0 nsto= 1
    2       1.625000000000        1.000000000000
 l=1 nsto= 1
    2       1.625000000000        1.000000000000
 42 C     2 shells
 l=0 nsto= 1
    2       1.625000000000        1.000000000000
 l=1 nsto= 1
    2       1.625000000000        1.000000000000
 43 H     1 shells
 l=0 nsto= 1
    1       1.200000000000        1.000000000000
 44 H     1 shells
 l=0 nsto= 1
    1       1.200000000000        1.000000000000
 45 H     1 shells
 l=0 nsto= 1
    1       1.200000000000        1.000000000000
 46 H     1 shells
 l=0 nsto= 1
    1       1.200000000000        1.000000000000
 47 H     1 shells
 l=0 nsto= 1
    1       1.200000000000        1.000000000000
 48 H     1 shells
 l=0 nsto= 1
    1       1.200000000000        1.000000000000
 49 H     1 shells
 l=0 nsto= 1
    1       1.200000000000        1.000000000000
 50 H     1 shells
 l=0 nsto= 1
    1       1.200000000000        1.000000000000
 51 H     1 shells
 l=0 nsto= 1
    1       1.200000000000        1.000000000000
 52 H     1 shells
 l=0 nsto= 1
    1       1.200000000000        1.000000000000
 53 H     1 shells
 l=0 nsto= 1
    1       1.200000000000        1.000000000000
------------------------------------------------------------------------------
                           ORCA NDO INTEGRAL CALCULATION
------------------------------------------------------------------------------

--------------
NDO PARAMETERS
--------------

Gamma integral treatment              ... Mataga-Nishimoto
Nuclear repulsuion treatment          ... Direct (ZA*ZB/RAB)
Interaction factors:
s-s (sigma) =    1.0000
s-p (sigma) =    1.0000
s-d (sigma) =    1.0000
p-p (sigma) =    1.2670  p-p(pi) =    0.5850
p-d (sigma) =    1.0000  p-d(pi) =    1.0000
d-d (sigma) =    1.0000  d-d(pi) =    1.0000 d-d (delta) =    1.0000

fGamma parameter for Mataga-Nishimoto gamma integrals:    1.2000

--------------------------
Parameters for Element H :
--------------------------
 One-electron parameters (in eV)
  U(s)  =   -13.060000 Beta(s) =    12.000000 Neff(s) =     1.000000
 One-center electron repulsion parameters (in eV)
  G(s,s)=    12.850000
--------------------------
Parameters for Element C :
--------------------------
 One-electron parameters (in eV)
  U(s)  =   -50.870766 Beta(s) =    17.000000 Neff(s) =     2.000000
  U(p)  =   -41.599980 Beta(p) =    17.000000 Neff(p) =     2.000000 
 One-center electron repulsion parameters (in eV)
  G(s,s)=    11.110000
  G(s,p)=    11.110000 G(p,p)  =    11.110000
 Slater-Condon parameters (in eV)
 F2(p,p)=     4.5098 G1(s,p)=    6.8977
--------------------------
Parameters for Element S :
--------------------------
 One-electron parameters (in eV)
  U(s)  =   -69.509597 Beta(s) =    15.000000 Neff(s) =     2.000000
  U(p)  =   -60.725746 Beta(p) =    15.000000 Neff(p) =     4.000000 
 One-center electron repulsion parameters (in eV)
  G(s,s)=    10.090000
  G(s,p)=    10.090000 G(p,p)  =    10.090000
 Slater-Condon parameters (in eV)
 F2(p,p)=     4.5377 G1(s,p)=    3.0756

 Number of atoms                    ....   54
 Number of basis functions          ....  120

 Overlap integrals                  .... done
 One electron matrix                .... done
 Nuclear repulsion                  .... done
 Integral list                      .... done
 Electron-electron repulsion        .... done
-------------------------------------------------------------------------------
                                 ORCA SCF
-------------------------------------------------------------------------------

------------
SCF SETTINGS
------------
Hamiltonian:
 ZDO-Hamiltonian        Method          .... INDO


General Settings:
 Integral files         IntName         .... /Users/mattyjones/GoogleDrive/Boise/Code/MorphCT/tests/output_EZ/donor_polymer/chromophores/input_orca/pair/00012-00014
 Hartree-Fock type      HFTyp           .... RHF
 Total Charge           Charge          ....    0
 Multiplicity           Mult            ....    1
 Number of Electrons    NEL             ....  124
 Basis Dimension        Dim             ....  120
 Nuclear Repulsion      ENuc            ....    810.7860007437 Eh

Convergence Acceleration:
 DIIS                   CNVDIIS         .... on
   Start iteration      DIISMaxIt       ....    12
   Startup error        DIISStart       ....  0.200000
   # of expansion vecs  DIISMaxEq       ....     5
   Bias factor          DIISBfac        ....   1.050
   Max. coefficient     DIISMaxC        ....  10.000
 Newton-Raphson         CNVNR           .... off
 SOSCF                  CNVSOSCF        .... on
   Start iteration      SOSCFMaxIt      ....   150
   Startup grad/error   SOSCFStart      ....  0.003300
 Level Shifting         CNVShift        .... on
   Level shift para.    LevelShift      ....    0.2500
   Turn off err/grad.   ShiftErr        ....    0.0010
 Zerner damping         CNVZerner       .... off
 Static damping         CNVDamp         .... on
   Fraction old density DampFac         ....    0.7000
   Max. Damping (<1)    DampMax         ....    0.9800
   Min. Damping (>=0)   DampMin         ....    0.0000
   Turn off err/grad.   DampErr         ....    0.1000
 Fernandez-Rico         CNVRico         .... off

SCF Procedure:
 Maximum # iterations   MaxIter         ....   125
 SCF integral mode      SCFMode         .... Conventional
 Integral Buffer length BufferLength    .... 1048576
 Integral index format  IndFormat       ....     0
 Integral value format  ValFormat       ....     0
 Integral Storage       Thresh          ....  1.000e-08 Eh

Convergence Tolerance:
 Convergence Check Mode ConvCheckMode   .... Total+1el-Energy
 Energy Change          TolE            ....  1.000e-06 Eh
 1-El. energy change                    ....  1.000e-03 Eh
 Orbital Gradient       TolG            ....  5.000e-05
 Orbital Rotation angle TolX            ....  5.000e-05
 DIIS Error             TolErr          ....  1.000e-06


Diagonalization of the overlap matrix:
Smallest eigenvalue                        ... 1.698e-01
Time for diagonalization                   ...    0.003 sec
Threshold for overlap eigenvalues          ... 1.000e-08
Number of eigenvalues below threshold      ... 0
Time for construction of square roots      ...    0.001 sec
Total time needed                          ...    0.004 sec

-------------------------------
INITIAL GUESS: EXTENDED HUECKEL
-------------------------------
EHT matrix was read from disk
EHT matrix was diagonalized
Initial density was built
                      ------------------
                      INITIAL GUESS DONE
                      ------------------

 InCore treatment chosen:
   Memory dedicated               ...    1024 MB
   Memory needed                  ...      0 MB
   Number of tiny    integrals    ...       0
   Number of small   integrals    ...       0
   Number of regular integrals    ...    7392

--------------
SCF ITERATIONS
--------------
ITER       Energy         Delta-E        Max-DP      RMS-DP      [F,P]     Damp
  0    -19.5165171237   0.000000000000 0.04373826  0.00144841  0.1112083 0.7000
  1    -19.5582384089  -0.041721285183 0.04290938  0.00136410  0.0759372 0.7000
                               ***Turning on DIIS***
  2    -19.5890935694  -0.030855160455 0.11381091  0.00350082  0.0458363 0.0000
  3    -19.6668268299  -0.077733260505 0.02033437  0.00073346  0.0214237 0.0000
  4    -19.6551939304   0.011632899468 0.01497449  0.00049952  0.0083434 0.0000
  5    -19.6720167370  -0.016822806593 0.01058247  0.00033795  0.0049700 0.0000
  6    -19.6742405651  -0.002223828126 0.00774975  0.00023932  0.0028400 0.0000
                      *** Initiating the SOSCF procedure ***
                           *** Shutting down DIIS ***
                      *** Re-Reading the Fockian *** 
                      *** Removing any level shift *** 
ITER      Energy       Delta-E        Grad      Rot      Max-DP    RMS-DP
  7    -19.67038465   0.0038559109  0.002991  0.002991  0.004640  0.000134
  8    -19.66814599   0.0022386611  0.000789  0.002165  0.002304  0.000061
  9    -19.66816013  -0.0000141409  0.000349  0.002115  0.002567  0.000065
 10    -19.66816530  -0.0000051664  0.000027  0.000062  0.000123  0.000004
                 **** Energy Check signals convergence ****
              ***Rediagonalizing the Fockian in SOSCF/NRSCF***

               *****************************************************
               *                     SUCCESS                       *
               *           SCF CONVERGED AFTER  11 CYCLES          *
               *****************************************************


----------------
TOTAL SCF ENERGY
----------------

Total Energy       :          -19.66816534 Eh            -535.19799 eV

Components:
Nuclear Repulsion  :          810.78600074 Eh           22062.60872 eV
Electronic Energy  :         -830.45416609 Eh          -22597.80671 eV

One Electron Energy:        -1570.50598377 Eh          -42735.64046 eV
Two Electron Energy:          740.05181768 Eh           20137.83375 eV


---------------
SCF CONVERGENCE
---------------

  Last Energy change         ...   -4.3439e-08  Tolerance :   1.0000e-06
  Last MAX-Density change    ...    3.9631e-05  Tolerance :   1.0000e-05
  Last RMS-Density change    ...    1.1925e-06  Tolerance :   1.0000e-06
  Last Orbital Gradient      ...    7.3014e-06  Tolerance :   5.0000e-05
  Last Orbital Rotation      ...    1.7780e-05  Tolerance :   5.0000e-05

             **** THE GBW FILE WAS UPDATED (/Users/mattyjones/GoogleDrive/Boise/Code/MorphCT/tests/output_EZ/donor_polymer/chromophores/input_orca/pair/00012-00014.gbw) ****
             **** DENSITY FILE WAS UPDATED (/Users/mattyjones/GoogleDrive/Boise/Code/MorphCT/tests/output_EZ/donor_polymer/chromophores/input_orca/pair/00012-00014.scfp.tmp) ****
             **** ENERGY FILE WAS UPDATED (/Users/mattyjones/GoogleDrive/Boise/Code/MorphCT/tests/output_EZ/donor_polymer/chromophores/input_orca/pair/00012-00014.en.tmp) ****
----------------
ORBITAL ENERGIES
----------------

  NO   OCC          E(Eh)            E(eV) 
   0   2.0000      -1.555799       -42.3354 
   1   2.0000      -1.555326       -42.3226 
   2   2.0000      -1.398160       -38.0459 
   3   2.0000      -1.387536       -37.7568 
   4   2.0000      -1.289773       -35.0965 
   5   2.0000      -1.276452       -34.7340 
   6   2.0000      -1.182343       -32.1732 
   7   2.0000      -1.179790       -32.1037 
   8   2.0000      -1.116173       -30.3726 
   9   2.0000      -1.112547       -30.2740 
  10   2.0000      -1.061780       -28.8925 
  11   2.0000      -1.042511       -28.3682 
  12   2.0000      -0.961485       -26.1633 
  13   2.0000      -0.947727       -25.7890 
  14   2.0000      -0.890446       -24.2303 
  15   2.0000      -0.878298       -23.8997 
  16   2.0000      -0.871922       -23.7262 
  17   2.0000      -0.864658       -23.5285 
  18   2.0000      -0.840576       -22.8732 
  19   2.0000      -0.832707       -22.6591 
  20   2.0000      -0.786340       -21.3974 
  21   2.0000      -0.775933       -21.1142 
  22   2.0000      -0.727554       -19.7977 
  23   2.0000      -0.714030       -19.4298 
  24   2.0000      -0.707066       -19.2403 
  25   2.0000      -0.699821       -19.0431 
  26   2.0000      -0.669306       -18.2127 
  27   2.0000      -0.668212       -18.1830 
  28   2.0000      -0.630020       -17.1437 
  29   2.0000      -0.626863       -17.0578 
  30   2.0000      -0.618903       -16.8412 
  31   2.0000      -0.613647       -16.6982 
  32   2.0000      -0.610820       -16.6212 
  33   2.0000      -0.602196       -16.3866 
  34   2.0000      -0.578810       -15.7502 
  35   2.0000      -0.576497       -15.6873 
  36   2.0000      -0.562410       -15.3040 
  37   2.0000      -0.558045       -15.1852 
  38   2.0000      -0.553893       -15.0722 
  39   2.0000      -0.550055       -14.9678 
  40   2.0000      -0.543602       -14.7922 
  41   2.0000      -0.532245       -14.4831 
  42   2.0000      -0.524694       -14.2776 
  43   2.0000      -0.513016       -13.9599 
  44   2.0000      -0.505662       -13.7598 
  45   2.0000      -0.504779       -13.7357 
  46   2.0000      -0.500381       -13.6161 
  47   2.0000      -0.497112       -13.5271 
  48   2.0000      -0.488264       -13.2863 
  49   2.0000      -0.487489       -13.2652 
  50   2.0000      -0.483591       -13.1592 
  51   2.0000      -0.478649       -13.0247 
  52   2.0000      -0.472791       -12.8653 
  53   2.0000      -0.470072       -12.7913 
  54   2.0000      -0.460878       -12.5411 
  55   2.0000      -0.457433       -12.4474 
  56   2.0000      -0.440032       -11.9739 
  57   2.0000      -0.435906       -11.8616 
  58   2.0000      -0.358191        -9.7469 
  59   2.0000      -0.358133        -9.7453 
  60   2.0000      -0.306294        -8.3347 
  61   2.0000      -0.305537        -8.3141 
  62   0.0000       0.006545         0.1781 
  63   0.0000       0.006938         0.1888 
  64   0.0000       0.059020         1.6060 
  65   0.0000       0.062368         1.6971 
  66   0.0000       0.073154         1.9906 
  67   0.0000       0.074217         2.0195 
  68   0.0000       0.084110         2.2888 
  69   0.0000       0.085860         2.3364 
  70   0.0000       0.102530         2.7900 
  71   0.0000       0.103636         2.8201 
  72   0.0000       0.106103         2.8872 
  73   0.0000       0.107822         2.9340 
  74   0.0000       0.122841         3.3427 
  75   0.0000       0.123588         3.3630 
  76   0.0000       0.140808         3.8316 
  77   0.0000       0.140972         3.8360 
  78   0.0000       0.155190         4.2229 
  79   0.0000       0.159150         4.3307 
  80   0.0000       0.164712         4.4820 
  81   0.0000       0.165644         4.5074 
  82   0.0000       0.169916         4.6236 
  83   0.0000       0.171864         4.6767 
  84   0.0000       0.202378         5.5070 
  85   0.0000       0.204512         5.5651 
  86   0.0000       0.227794         6.1986 
  87   0.0000       0.233062         6.3419 
  88   0.0000       0.233725         6.3600 
  89   0.0000       0.234037         6.3685 
  90   0.0000       0.236691         6.4407 
  91   0.0000       0.237294         6.4571 
  92   0.0000       0.237634         6.4663 
  93   0.0000       0.238814         6.4984 
  94   0.0000       0.239212         6.5093 
  95   0.0000       0.240338         6.5399 
  96   0.0000       0.241354         6.5676 
  97   0.0000       0.241470         6.5707 
  98   0.0000       0.242472         6.5980 
  99   0.0000       0.245266         6.6740 
 100   0.0000       0.245385         6.6773 
 101   0.0000       0.253362         6.8943 
 102   0.0000       0.256678         6.9846 
 103   0.0000       0.257733         7.0133 
 104   0.0000       0.264775         7.2049 
 105   0.0000       0.265602         7.2274 
 106   0.0000       0.270218         7.3530 
 107   0.0000       0.276973         7.5368 
 108   0.0000       0.301899         8.2151 
 109   0.0000       0.303810         8.2671 
 110   0.0000       0.309295         8.4163 
 111   0.0000       0.309497         8.4219 
 112   0.0000       0.337516         9.1843 
 113   0.0000       0.343478         9.3465 
 114   0.0000       0.352596         9.5946 
 115   0.0000       0.356490         9.7006 
 116   0.0000       0.409210        11.1352 
 117   0.0000       0.413216        11.2442 
 118   0.0000       0.429503        11.6874 
 119   0.0000       0.430534        11.7154 
-------
TIMINGS
-------

Total SCF time: 0 days 0 hours 0 min 0 sec 

Total time                  ....       0.119 sec
Sum of individual times     ....       0.096 sec  ( 81.1%)

Fock matrix formation       ....       0.048 sec  ( 40.1%)
Diagonalization             ....       0.023 sec  ( 19.7%)
Density matrix formation    ....       0.006 sec  (  5.1%)
Population analysis         ....       0.000 sec  (  0.0%)
Initial guess               ....       0.003 sec  (  2.3%)
Orbital Transformation      ....       0.000 sec  (  0.0%)
Orbital Orthonormalization  ....       0.000 sec  (  0.0%)
DIIS solution               ....       0.010 sec  (  8.6%)
SOSCF solution              ....       0.006 sec  (  5.3%)

-------------------------   --------------------
FINAL SINGLE POINT ENERGY       -19.668165343949
-------------------------   --------------------


                            ***************************************
                            *     ORCA property calculations      *
                            ***************************************

                                    ---------------------
                                    Active property flags
                                    ---------------------
   (+) Dipole Moment


------------------------------------------------------------------------------
                       ORCA ELECTRIC PROPERTIES CALCULATION
------------------------------------------------------------------------------

Dipole Moment Calculation                       ... on
Quadrupole Moment Calculation                   ... off
Polarizability Calculation                      ... off
GBWName                                         ... /Users/mattyjones/GoogleDrive/Boise/Code/MorphCT/tests/output_EZ/donor_polymer/chromophores/input_orca/pair/00012-00014.gbw
Electron density file                           ... /Users/mattyjones/GoogleDrive/Boise/Code/MorphCT/tests/output_EZ/donor_polymer/chromophores/input_orca/pair/00012-00014.scfp.tmp

-------------
DIPOLE MOMENT
-------------
                                X             Y             Z
Electronic contribution:    129.24316     239.61128     -94.09469
Nuclear contribution   :    -69.36843    -129.41960      51.34590
                        -----------------------------------------
Total Dipole Moment    :     59.87473     110.19167     -42.74879
                        -----------------------------------------
Magnitude (a.u.)       :    132.49395
Magnitude (Debye)      :    336.77286


Timings for individual modules:

Sum of individual times         ...        0.228 sec (=   0.004 min)
STO integral calculation        ...        0.063 sec (=   0.001 min)  27.5 %
SCF iterations                  ...        0.165 sec (=   0.003 min)  72.5 %
                             ****ORCA TERMINATED NORMALLY****
TOTAL RUN TIME: 0 days 0 hours 0 minutes 0 seconds 685 msec

