
                                 *****************
                                 * O   R   C   A *
                                 *****************

           --- An Ab Initio, DFT and Semiempirical electronic structure package ---

                  #######################################################
                  #                        -***-                        #
                  #  Department of molecular theory and spectroscopy    #
                  #              Directorship: Frank Neese              #
                  # Max Planck Institute for Chemical Energy Conversion #
                  #                  D-45470 Muelheim/Ruhr              #
                  #                       Germany                       #
                  #                                                     #
                  #                  All rights reserved                #
                  #                        -***-                        #
                  #######################################################


                         Program Version 3.0.3 - RELEASE   -


 With contributions from (in alphabetic order):
   Ute Becker             : Parallelization
   Dmytro Bykov           : SCF Hessian
   Dmitry Ganyushin       : Spin-Orbit,Spin-Spin,Magnetic field MRCI
   Andreas Hansen         : Spin unrestricted coupled pair/coupled cluster methods
   Dimitrios Liakos       : Extrapolation schemes; parallel MDCI
   Robert Izsak           : Overlap fitted RIJCOSX, COSX-SCS-MP3
   Christian Kollmar      : KDIIS, OOCD, Brueckner-CCSD(T), CCSD density
   Simone Kossmann        : Meta GGA functionals, TD-DFT gradient, OOMP2, MP2 Hessian
   Taras Petrenko         : DFT Hessian,TD-DFT gradient, ASA and ECA modules, normal mode analysis, Resonance Raman, ABS, FL, XAS/XES, NRVS
   Christoph Reimann      : Effective Core Potentials
   Michael Roemelt        : Restricted open shell CIS
   Christoph Riplinger    : Improved optimizer, TS searches, QM/MM, DLPNO-CCSD
   Barbara Sandhoefer     : DKH picture change effects
   Igor Schapiro          : Molecular dynamics
   Kantharuban Sivalingam : CASSCF convergence, NEVPT2
   Boris Wezisla          : Elementary symmetry handling
   Frank Wennmohs         : Technical directorship


 We gratefully acknowledge several colleagues who have allowed us to
 interface, adapt or use parts of their codes:
   Stefan Grimme, W. Hujo, H. Kruse, T. Risthaus : VdW corrections, initial TS optimization,
                                                   DFT functionals, gCP
   Ed Valeev                                     : LibInt (2-el integral package), F12 methods
   Garnet Chan, S. Sharma, R. Olivares           : DMRG
   Ulf Ekstrom                                   : XCFun DFT Library
   Mihaly Kallay                                 : mrcc  (arbitrary order and MRCC methods)
   Andreas Klamt, Michael Diedenhofen            : otool_cosmo (COSMO solvation model)
   Frank Weinhold                                : gennbo (NPA and NBO analysis)
   Christopher J. Cramer and Donald G. Truhlar   : smd solvation model


 Your calculation uses the libint2 library for the computation of 2-el integrals
 For citations please refer to: http://libint.valeyev.net

 This ORCA versions uses:
   CBLAS   interface :  Fast vector & matrix operations
   LAPACKE interface :  Fast linear algebra routines
   SCALAPACK package :  Parallel linear algebra routines


leaving
================================================================================
                                        WARNINGS
                       Please study these warnings very carefully!
================================================================================
Now building the actual basis set

WARNING: Direct SCF is incompatible with Method<>HF and Method<>DFT
  ===> : conventional SCF is chosen

WARNING: The NDO methods need Guess=HUECKEL or Guess=HCORE or Guess=MOREAD
  ===> : Guess is set to Hueckel

WARNING: The NDO methods need %rel::SOCType==1
  ===> : %rel::SOCType is set to 1

WARNING: The NDO methods cannot have frozencore=1
  ===> : %method FrozenCore=0 end


INFO   : the flag for use of LIBINT has been found!

================================================================================
                                       INPUT FILE
================================================================================
NAME = /Users/mattyjones/GoogleDrive/Boise/Code/MorphCT/tests/output_EZ/donor_polymer/chromophores/input_orca/pair/00023-00029.inp
|  1> # ================================================================
|  2> # Orca input file made by Matty Jones
|  3> # ================================================================
|  4> ! ZINDO/S 
|  5> ! NOPOP
|  6> ! NOMOPRINT
|  7> * xyz 0   1
|  8>  C  10.13698  -9.06363  34.36869
|  9>  C  8.77427  -9.30309  34.55190
| 10>  C  8.10985  -8.31725  35.34622
| 11>  C  8.95218  -7.29418  35.79247
| 12>  S  10.45355  -7.65809  35.18924
| 13>  H  8.22501  -10.20228  34.11035
| 14>  C  6.54445  -8.30824  35.73495
| 15>  C  5.83923  -9.59914  36.56503
| 16>  C  5.95732  -9.34437  38.23414
| 17>  H  6.09690  -10.38164  38.72991
| 18>  H  6.91088  -8.71785  38.43227
| 19>  H  4.72896  -9.67338  36.27516
| 20>  H  6.38638  -10.57204  36.29564
| 21>  H  6.29925  -7.35356  36.35503
| 22>  H  5.92599  -8.22151  34.74260
| 23>  C  4.67667  -8.60462  38.91474
| 24>  C  4.67710  -6.92205  38.77804
| 25>  C  3.52558  -6.21249  37.76848
| 26>  H  4.05757  -5.50408  37.02264
| 27>  H  2.76024  -5.59635  38.37767
| 28>  H  2.96486  -7.03930  37.18352
| 29>  H  4.67657  -6.56448  39.86234
| 30>  H  5.68754  -6.63701  38.30706
| 31>  H  3.70193  -8.99889  38.43550
| 32>  H  4.65512  -8.85244  40.04648
| 33>  C  -2.08181  8.26260  -38.11596
| 34>  C  -3.41333  8.53640  -37.79970
| 35>  C  -3.63426  8.84612  -36.42147
| 36>  C  -2.47135  8.81674  -35.64552
| 37>  S  -1.24817  8.41475  -36.69083
| 38>  H  -4.25787  8.54991  -38.56821
| 39>  C  -5.00926  9.22484  -35.61823
| 40>  C  -6.55468  8.49149  -35.28106
| 41>  C  -8.15877  8.30534  -35.86893
| 42>  H  -8.84861  8.51271  -34.95668
| 43>  H  -8.31137  9.16454  -36.62506
| 44>  H  -6.22765  7.38640  -35.14006
| 45>  H  -6.76846  8.94415  -34.22782
| 46>  H  -5.38115  10.21945  -36.12387
| 47>  H  -4.67638  9.52143  -34.53350
| 48>  C  -8.61761  6.88505  -36.51799
| 49>  C  -8.94133  6.79569  -38.16884
| 50>  C  -9.01101  8.27199  -38.96360
| 51>  H  -7.96801  8.77117  -38.94531
| 52>  H  -9.78505  8.95487  -38.43871
| 53>  H  -9.33873  8.09616  -40.06009
| 54>  H  -8.11309  6.16204  -38.66124
| 55>  H  -9.95780  6.26669  -38.30615
| 56>  H  -7.79623  6.09555  -36.29988
| 57>  H  -9.58799  6.54068  -35.97939
| 58>  H  10.82457  -9.65553  33.82053
| 59>  H  8.68668  -6.46058  36.39098
| 60>  H  -1.68680  8.01053  -39.06677
| 61>  H  -2.38887  9.01077  -34.60670
| 62> *
| 63> 
| 64>                          ****END OF INPUT****
================================================================================

                       ****************************
                       * Single Point Calculation *
                       ****************************

---------------------------------
CARTESIAN COORDINATES (ANGSTROEM)
---------------------------------
  C     10.136980   -9.063630   34.368690
  C      8.774270   -9.303090   34.551900
  C      8.109850   -8.317250   35.346220
  C      8.952180   -7.294180   35.792470
  S     10.453550   -7.658090   35.189240
  H      8.225010  -10.202280   34.110350
  C      6.544450   -8.308240   35.734950
  C      5.839230   -9.599140   36.565030
  C      5.957320   -9.344370   38.234140
  H      6.096900  -10.381640   38.729910
  H      6.910880   -8.717850   38.432270
  H      4.728960   -9.673380   36.275160
  H      6.386380  -10.572040   36.295640
  H      6.299250   -7.353560   36.355030
  H      5.925990   -8.221510   34.742600
  C      4.676670   -8.604620   38.914740
  C      4.677100   -6.922050   38.778040
  C      3.525580   -6.212490   37.768480
  H      4.057570   -5.504080   37.022640
  H      2.760240   -5.596350   38.377670
  H      2.964860   -7.039300   37.183520
  H      4.676570   -6.564480   39.862340
  H      5.687540   -6.637010   38.307060
  H      3.701930   -8.998890   38.435500
  H      4.655120   -8.852440   40.046480
  C     -2.081810    8.262600  -38.115960
  C     -3.413330    8.536400  -37.799700
  C     -3.634260    8.846120  -36.421470
  C     -2.471350    8.816740  -35.645520
  S     -1.248170    8.414750  -36.690830
  H     -4.257870    8.549910  -38.568210
  C     -5.009260    9.224840  -35.618230
  C     -6.554680    8.491490  -35.281060
  C     -8.158770    8.305340  -35.868930
  H     -8.848610    8.512710  -34.956680
  H     -8.311370    9.164540  -36.625060
  H     -6.227650    7.386400  -35.140060
  H     -6.768460    8.944150  -34.227820
  H     -5.381150   10.219450  -36.123870
  H     -4.676380    9.521430  -34.533500
  C     -8.617610    6.885050  -36.517990
  C     -8.941330    6.795690  -38.168840
  C     -9.011010    8.271990  -38.963600
  H     -7.968010    8.771170  -38.945310
  H     -9.785050    8.954870  -38.438710
  H     -9.338730    8.096160  -40.060090
  H     -8.113090    6.162040  -38.661240
  H     -9.957800    6.266690  -38.306150
  H     -7.796230    6.095550  -36.299880
  H     -9.587990    6.540680  -35.979390
  H     10.824570   -9.655530   33.820530
  H      8.686680   -6.460580   36.390980
  H     -1.686800    8.010530  -39.066770
  H     -2.388870    9.010770  -34.606700

----------------------------
CARTESIAN COORDINATES (A.U.)
----------------------------
  NO LB      ZA    FRAG    MASS        X           Y           Z
   0 C     4.0000    0    12.011         19.156116025037047        -17.127778479192674         64.947411681637988
   1 C     4.0000    0    12.011         16.580967325081222        -17.580292299221455         65.293628406633701
   2 C     4.0000    0    12.011         15.325395487181263        -15.717324687356530         66.794675669330033
   3 C     4.0000    0    12.011         16.917168501567151        -13.784002571525715         67.637965956592382
   4 S     6.0000    0    32.060         19.754346627252499        -14.471692808920997         66.498026460827063
   5 H     1.0000    0     1.008         15.543016348763633        -19.279515141582106         64.459219832200759
   6 C     4.0000    0    12.011         12.367218197140936        -15.700298254889899         67.529268909369222
   7 C     4.0000    0    12.011         11.034545532976990        -18.139745721168843         69.097892778614579
   8 C     4.0000    0    12.011         11.257703292131751        -17.658300194029724         72.252053566003880
   9 H     1.0000    0     1.008         11.521471265904479        -19.618456420962225         73.188923091418019
  10 H     1.0000    0     1.008         13.059670544393699        -16.474348976605384         72.626465004917705
  11 H     1.0000    0     1.008          8.936439298268242        -18.280038989351159         68.550117864174837
  12 H     1.0000    0     1.008         12.068509187152003        -19.978260276860830         68.588819455397541
  13 H     1.0000    0     1.008         11.903857349103443        -13.896214509357959         68.701050290491125
  14 H     1.0000    0     1.008         11.198498172355997        -15.536402307294910         65.653999180372480
  15 C     4.0000    0    12.011          8.837625518725499        -16.260375286461482         73.538201172750689
  16 C     4.0000    0    12.011          8.838438100963087        -13.080778785309599         73.279875610243650
  17 C     4.0000    0    12.011          6.662380663230087        -11.739904709724437         71.372083694482114
  18 H     1.0000    0     1.008          7.667696069214854        -10.401203819193283         69.962650354758296
  19 H     1.0000    0     1.008          5.216097663894796        -10.575568849570198         72.523285958005602
  20 H     1.0000    0     1.008          5.602773425417761        -13.302349174511866         70.266669495183535
  21 H     1.0000    0     1.008          8.837436546112107        -12.405069411603378         75.328905657254467
  22 H     1.0000    0     1.008         10.747892975722475        -12.542131248096686         72.389852395689417
  23 H     1.0000    0     1.008          6.995633866947099        -17.005437609282612         72.632568820330263
  24 H     1.0000    0     1.008          8.796901920539497        -16.728687216969846         75.676879827554728
  25 C     4.0000    0    12.011         -3.934050762858601         15.614051154137735        -72.028725731497076
  26 C     4.0000    0    12.011         -6.450258904697426         16.131458169605374        -71.431080944383140
  27 C     4.0000    0    12.011         -6.867756099464648         16.716744147803464        -68.826603694828847
  28 C     4.0000    0    12.011         -4.670174681066285         16.661223993988855        -67.360270701212656
  29 S     6.0000    0    32.060         -2.358699468576489         15.901572985413852        -69.335620326261875
  30 H     1.0000    0     1.008         -8.046208213839279         16.156988369674650        -72.883354375562959
  31 C     4.0000    0    12.011         -9.466129533606370         17.432421229242120        -67.308700075017939
  32 C     4.0000    0    12.011        -12.386550095490950         16.046590568930970        -66.671541114443713
  33 C     4.0000    0    12.011        -15.417840889652691         15.694818049101526        -67.782454416791992
  34 H     1.0000    0     1.008        -16.721449565876927         16.086690557492780        -66.058551751122337
  35 H     1.0000    0     1.008        -15.706213097689073         17.318470743366667        -69.211333038433878
  36 H     1.0000    0     1.008        -11.768552957914682         13.958273115595933        -66.405089729560814
  37 H     1.0000    0     1.008        -12.790535748400636         16.901994000711763        -64.681205961152500
  38 H     1.0000    0     1.008        -10.168899785550343         19.311961739301534        -68.264221197373885
  39 H     1.0000    0     1.008         -8.837077498146662         17.992895103301823        -65.258857445769536
  40 C     4.0000    0    12.011        -16.284922828941120         13.010858918354513        -69.009000061274918
  41 C     4.0000    0    12.011        -16.896664973014108         12.841992991027309        -72.128654449458836
  42 C     4.0000    0    12.011        -17.028341090025741         15.631795682535255        -73.630533191654081
  43 H     1.0000    0     1.008        -15.057356732345871         16.575109174066064        -73.595970100664658
  44 H     1.0000    0     1.008        -18.491064706726142         16.922251864867398        -72.638634841220153
  45 H     1.0000    0     1.008        -17.647642138634410         15.299525136407880        -75.702599000237399
  46 H     1.0000    0     1.008        -15.331518199855166         11.644568026268109        -73.059155597801649
  47 H     1.0000    0     1.008        -18.817514896361040         11.842327866182968        -72.388132744907566
  48 H     1.0000    0     1.008        -14.732739577060881         11.518920135623686        -68.596831894205366
  49 H     1.0000    0     1.008        -18.118675274775622         12.360093929616053        -67.991193565544947
  50 H     1.0000    0     1.008         20.455472817459963        -18.246307377860663         63.911539404067703
  51 H     1.0000    0     1.008         16.415446213011059        -12.208726866288961         68.768985945005582
  52 H     1.0000    0     1.008         -3.187590042698368         15.137707887560202        -73.825496236890729
  53 H     1.0000    0     1.008         -4.514310069540461         17.027887555753598        -65.397185398772578

--------------------------------
INTERNAL COORDINATES (ANGSTROEM)
--------------------------------
 C      0   0   0   0.000000     0.000     0.000
 C      1   0   0   1.395667     0.000     0.000
 C      2   1   0   1.429783   114.101     0.000
 C      3   2   1   1.398332   113.693     0.000
 S      1   2   3   1.658029   105.480     0.000
 H      2   1   3   1.142452   123.623   179.892
 C      3   2   1   1.612969   126.067   179.878
 C      7   3   2   1.689021   121.291    58.032
 C      8   7   3   1.692566   109.906    89.569
 H      9   8   7   1.158102   107.202   214.082
 H      9   8   7   1.158041   107.915   330.405
 H      8   7   3   1.149885   109.184   209.088
 H      8   7   3   1.148250   109.470   329.875
 H      7   3   2   1.164490   109.710   182.229
 H      7   3   2   1.172507   107.960   297.547
 C      9   8   7   1.628039   115.199    92.806
 C     16   9   8   1.688114   114.761   277.563
 C     17  16   9   1.687805   117.858   110.559
 H     18  17  16   1.158074   109.207   232.500
 H     18  17  16   1.156065   111.133   112.825
 H     18  17  16   1.157670   109.417   352.353
 H     17  16   9   1.141737   103.606   240.010
 H     17  16   9   1.150678   106.276   353.875
 H     16   9   8   1.155525   109.581    39.067
 H     16   9   8   1.158756   109.011   157.606
 C     15   7   3  75.128027   153.283   341.041
 C     26  15   7   1.395683    85.698   208.776
 C     27  26  15   1.429774   114.101    22.626
 C     28  27  26   1.398328   113.694     0.000
 S     26  15   7   1.658041    29.886   340.695
 H     27  26  15   1.141945   123.737   200.694
 C     28  27  26   1.636841   130.765   179.957
 C     32  28  27   1.743505   137.917    60.190
 C     33  32  28   1.718531   143.781   271.099
 H     34  33  32   1.162360   105.436   227.052
 H     34  33  32   1.154662   105.472   340.776
 H     33  32  28   1.161057   100.030    37.083
 H     33  32  28   1.166155   100.014   147.715
 H     32  28  27   1.176105   104.496   298.138
 H     32  28  27   1.172780   105.900   186.582
 C     34  33  32   1.627586   119.609   105.954
 C     41  34  33   1.684662   119.422   248.495
 C     42  41  34   1.678082   115.177   349.924
 H     43  42  41   1.156445   109.561    65.463
 H     43  42  41   1.158004   109.383   304.880
 H     43  42  41   1.157846   109.067   185.454
 H     42  41  34   1.153235   108.032   110.882
 H     42  41  34   1.154082   108.068   228.989
 H     41  34  33   1.159977   108.622    10.797
 H     41  34  33   1.162032   108.010   127.231
 H      1   2   3   1.060002   127.260   180.000
 H      4   3   2   1.059997   127.206   179.999
 H     26  15   7   1.060006   141.077    57.944
 H     29  28  27   1.059999   127.207   180.000

---------------------------
INTERNAL COORDINATES (A.U.)
---------------------------
 C      0   0   0   0.000000     0.000     0.000
 C      1   0   0   2.637428     0.000     0.000
 C      2   1   0   2.701898   114.101     0.000
 C      3   2   1   2.642464   113.693     0.000
 S      1   2   3   3.133222   105.480     0.000
 H      2   1   3   2.158921   123.623   179.892
 C      3   2   1   3.048070   126.067   179.878
 C      7   3   2   3.191787   121.291    58.032
 C      8   7   3   3.198487   109.906    89.569
 H      9   8   7   2.188495   107.202   214.082
 H      9   8   7   2.188381   107.915   330.405
 H      8   7   3   2.172968   109.184   209.088
 H      8   7   3   2.169878   109.470   329.875
 H      7   3   2   2.200567   109.710   182.229
 H      7   3   2   2.215718   107.960   297.547
 C      9   8   7   3.076548   115.199    92.806
 C     16   9   8   3.190073   114.761   277.563
 C     17  16   9   3.189489   117.858   110.559
 H     18  17  16   2.188443   109.207   232.500
 H     18  17  16   2.184646   111.133   112.825
 H     18  17  16   2.187679   109.417   352.353
 H     17  16   9   2.157570   103.606   240.010
 H     17  16   9   2.174466   106.276   353.875
 H     16   9   8   2.183626   109.581    39.067
 H     16   9   8   2.189731   109.011   157.606
 C     15   7   3 141.971397   153.283   341.041
 C     26  15   7   2.637460    85.698   208.776
 C     27  26  15   2.701882   114.101    22.626
 C     28  27  26   2.642457   113.694     0.000
 S     26  15   7   3.133244    29.886   340.695
 H     27  26  15   2.157963   123.737   200.694
 C     28  27  26   3.093181   130.765   179.957
 C     32  28  27   3.294746   137.917    60.190
 C     33  32  28   3.247552   143.781   271.099
 H     34  33  32   2.196543   105.436   227.052
 H     34  33  32   2.181995   105.472   340.776
 H     33  32  28   2.194080   100.030    37.083
 H     33  32  28   2.203714   100.014   147.715
 H     32  28  27   2.222516   104.496   298.138
 H     32  28  27   2.216234   105.900   186.582
 C     34  33  32   3.075692   119.609   105.954
 C     41  34  33   3.183550   119.422   248.495
 C     42  41  34   3.171116   115.177   349.924
 H     43  42  41   2.185364   109.561    65.463
 H     43  42  41   2.188310   109.383   304.880
 H     43  42  41   2.188011   109.067   185.454
 H     42  41  34   2.179299   108.032   110.882
 H     42  41  34   2.180900   108.068   228.989
 H     41  34  33   2.192039   108.622    10.797
 H     41  34  33   2.195922   108.010   127.231
 H      1   2   3   2.003114   127.260   180.000
 H      4   3   2   2.003104   127.206   179.999
 H     26  15   7   2.003120   141.077    57.944
 H     29  28  27   2.003108   127.207   180.000

----------------------------
SLATER BASIS SET DIM= 120
----------------------------
  0 C     2 shells
 l=0 nsto= 1
    2       1.625000000000        1.000000000000
 l=1 nsto= 1
    2       1.625000000000        1.000000000000
  1 C     2 shells
 l=0 nsto= 1
    2       1.625000000000        1.000000000000
 l=1 nsto= 1
    2       1.625000000000        1.000000000000
  2 C     2 shells
 l=0 nsto= 1
    2       1.625000000000        1.000000000000
 l=1 nsto= 1
    2       1.625000000000        1.000000000000
  3 C     2 shells
 l=0 nsto= 1
    2       1.625000000000        1.000000000000
 l=1 nsto= 1
    2       1.625000000000        1.000000000000
  4 S     2 shells
 l=0 nsto= 1
    3       1.925000000000        1.000000000000
 l=1 nsto= 1
    3       1.925000000000        1.000000000000
  5 H     1 shells
 l=0 nsto= 1
    1       1.200000000000        1.000000000000
  6 C     2 shells
 l=0 nsto= 1
    2       1.625000000000        1.000000000000
 l=1 nsto= 1
    2       1.625000000000        1.000000000000
  7 C     2 shells
 l=0 nsto= 1
    2       1.625000000000        1.000000000000
 l=1 nsto= 1
    2       1.625000000000        1.000000000000
  8 C     2 shells
 l=0 nsto= 1
    2       1.625000000000        1.000000000000
 l=1 nsto= 1
    2       1.625000000000        1.000000000000
  9 H     1 shells
 l=0 nsto= 1
    1       1.200000000000        1.000000000000
 10 H     1 shells
 l=0 nsto= 1
    1       1.200000000000        1.000000000000
 11 H     1 shells
 l=0 nsto= 1
    1       1.200000000000        1.000000000000
 12 H     1 shells
 l=0 nsto= 1
    1       1.200000000000        1.000000000000
 13 H     1 shells
 l=0 nsto= 1
    1       1.200000000000        1.000000000000
 14 H     1 shells
 l=0 nsto= 1
    1       1.200000000000        1.000000000000
 15 C     2 shells
 l=0 nsto= 1
    2       1.625000000000        1.000000000000
 l=1 nsto= 1
    2       1.625000000000        1.000000000000
 16 C     2 shells
 l=0 nsto= 1
    2       1.625000000000        1.000000000000
 l=1 nsto= 1
    2       1.625000000000        1.000000000000
 17 C     2 shells
 l=0 nsto= 1
    2       1.625000000000        1.000000000000
 l=1 nsto= 1
    2       1.625000000000        1.000000000000
 18 H     1 shells
 l=0 nsto= 1
    1       1.200000000000        1.000000000000
 19 H     1 shells
 l=0 nsto= 1
    1       1.200000000000        1.000000000000
 20 H     1 shells
 l=0 nsto= 1
    1       1.200000000000        1.000000000000
 21 H     1 shells
 l=0 nsto= 1
    1       1.200000000000        1.000000000000
 22 H     1 shells
 l=0 nsto= 1
    1       1.200000000000        1.000000000000
 23 H     1 shells
 l=0 nsto= 1
    1       1.200000000000        1.000000000000
 24 H     1 shells
 l=0 nsto= 1
    1       1.200000000000        1.000000000000
 25 C     2 shells
 l=0 nsto= 1
    2       1.625000000000        1.000000000000
 l=1 nsto= 1
    2       1.625000000000        1.000000000000
 26 C     2 shells
 l=0 nsto= 1
    2       1.625000000000        1.000000000000
 l=1 nsto= 1
    2       1.625000000000        1.000000000000
 27 C     2 shells
 l=0 nsto= 1
    2       1.625000000000        1.000000000000
 l=1 nsto= 1
    2       1.625000000000        1.000000000000
 28 C     2 shells
 l=0 nsto= 1
    2       1.625000000000        1.000000000000
 l=1 nsto= 1
    2       1.625000000000        1.000000000000
 29 S     2 shells
 l=0 nsto= 1
    3       1.925000000000        1.000000000000
 l=1 nsto= 1
    3       1.925000000000        1.000000000000
 30 H     1 shells
 l=0 nsto= 1
    1       1.200000000000        1.000000000000
 31 C     2 shells
 l=0 nsto= 1
    2       1.625000000000        1.000000000000
 l=1 nsto= 1
    2       1.625000000000        1.000000000000
 32 C     2 shells
 l=0 nsto= 1
    2       1.625000000000        1.000000000000
 l=1 nsto= 1
    2       1.625000000000        1.000000000000
 33 C     2 shells
 l=0 nsto= 1
    2       1.625000000000        1.000000000000
 l=1 nsto= 1
    2       1.625000000000        1.000000000000
 34 H     1 shells
 l=0 nsto= 1
    1       1.200000000000        1.000000000000
 35 H     1 shells
 l=0 nsto= 1
    1       1.200000000000        1.000000000000
 36 H     1 shells
 l=0 nsto= 1
    1       1.200000000000        1.000000000000
 37 H     1 shells
 l=0 nsto= 1
    1       1.200000000000        1.000000000000
 38 H     1 shells
 l=0 nsto= 1
    1       1.200000000000        1.000000000000
 39 H     1 shells
 l=0 nsto= 1
    1       1.200000000000        1.000000000000
 40 C     2 shells
 l=0 nsto= 1
    2       1.625000000000        1.000000000000
 l=1 nsto= 1
    2       1.625000000000        1.000000000000
 41 C     2 shells
 l=0 nsto= 1
    2       1.625000000000        1.000000000000
 l=1 nsto= 1
    2       1.625000000000        1.000000000000
 42 C     2 shells
 l=0 nsto= 1
    2       1.625000000000        1.000000000000
 l=1 nsto= 1
    2       1.625000000000        1.000000000000
 43 H     1 shells
 l=0 nsto= 1
    1       1.200000000000        1.000000000000
 44 H     1 shells
 l=0 nsto= 1
    1       1.200000000000        1.000000000000
 45 H     1 shells
 l=0 nsto= 1
    1       1.200000000000        1.000000000000
 46 H     1 shells
 l=0 nsto= 1
    1       1.200000000000        1.000000000000
 47 H     1 shells
 l=0 nsto= 1
    1       1.200000000000        1.000000000000
 48 H     1 shells
 l=0 nsto= 1
    1       1.200000000000        1.000000000000
 49 H     1 shells
 l=0 nsto= 1
    1       1.200000000000        1.000000000000
 50 H     1 shells
 l=0 nsto= 1
    1       1.200000000000        1.000000000000
 51 H     1 shells
 l=0 nsto= 1
    1       1.200000000000        1.000000000000
 52 H     1 shells
 l=0 nsto= 1
    1       1.200000000000        1.000000000000
 53 H     1 shells
 l=0 nsto= 1
    1       1.200000000000        1.000000000000
------------------------------------------------------------------------------
                           ORCA NDO INTEGRAL CALCULATION
------------------------------------------------------------------------------

--------------
NDO PARAMETERS
--------------

Gamma integral treatment              ... Mataga-Nishimoto
Nuclear repulsuion treatment          ... Direct (ZA*ZB/RAB)
Interaction factors:
s-s (sigma) =    1.0000
s-p (sigma) =    1.0000
s-d (sigma) =    1.0000
p-p (sigma) =    1.2670  p-p(pi) =    0.5850
p-d (sigma) =    1.0000  p-d(pi) =    1.0000
d-d (sigma) =    1.0000  d-d(pi) =    1.0000 d-d (delta) =    1.0000

fGamma parameter for Mataga-Nishimoto gamma integrals:    1.2000

--------------------------
Parameters for Element H :
--------------------------
 One-electron parameters (in eV)
  U(s)  =   -13.060000 Beta(s) =    12.000000 Neff(s) =     1.000000
 One-center electron repulsion parameters (in eV)
  G(s,s)=    12.850000
--------------------------
Parameters for Element C :
--------------------------
 One-electron parameters (in eV)
  U(s)  =   -50.870766 Beta(s) =    17.000000 Neff(s) =     2.000000
  U(p)  =   -41.599980 Beta(p) =    17.000000 Neff(p) =     2.000000 
 One-center electron repulsion parameters (in eV)
  G(s,s)=    11.110000
  G(s,p)=    11.110000 G(p,p)  =    11.110000
 Slater-Condon parameters (in eV)
 F2(p,p)=     4.5098 G1(s,p)=    6.8977
--------------------------
Parameters for Element S :
--------------------------
 One-electron parameters (in eV)
  U(s)  =   -69.509597 Beta(s) =    15.000000 Neff(s) =     2.000000
  U(p)  =   -60.725746 Beta(p) =    15.000000 Neff(p) =     4.000000 
 One-center electron repulsion parameters (in eV)
  G(s,s)=    10.090000
  G(s,p)=    10.090000 G(p,p)  =    10.090000
 Slater-Condon parameters (in eV)
 F2(p,p)=     4.5377 G1(s,p)=    3.0756

 Number of atoms                    ....   54
 Number of basis functions          ....  120

 Overlap integrals                  .... done
 One electron matrix                .... done
 Nuclear repulsion                  .... done
 Integral list                      .... done
 Electron-electron repulsion        .... done
-------------------------------------------------------------------------------
                                 ORCA SCF
-------------------------------------------------------------------------------

------------
SCF SETTINGS
------------
Hamiltonian:
 ZDO-Hamiltonian        Method          .... INDO


General Settings:
 Integral files         IntName         .... /Users/mattyjones/GoogleDrive/Boise/Code/MorphCT/tests/output_EZ/donor_polymer/chromophores/input_orca/pair/00023-00029
 Hartree-Fock type      HFTyp           .... RHF
 Total Charge           Charge          ....    0
 Multiplicity           Mult            ....    1
 Number of Electrons    NEL             ....  124
 Basis Dimension        Dim             ....  120
 Nuclear Repulsion      ENuc            ....    623.0102864051 Eh

Convergence Acceleration:
 DIIS                   CNVDIIS         .... on
   Start iteration      DIISMaxIt       ....    12
   Startup error        DIISStart       ....  0.200000
   # of expansion vecs  DIISMaxEq       ....     5
   Bias factor          DIISBfac        ....   1.050
   Max. coefficient     DIISMaxC        ....  10.000
 Newton-Raphson         CNVNR           .... off
 SOSCF                  CNVSOSCF        .... on
   Start iteration      SOSCFMaxIt      ....   150
   Startup grad/error   SOSCFStart      ....  0.003300
 Level Shifting         CNVShift        .... on
   Level shift para.    LevelShift      ....    0.2500
   Turn off err/grad.   ShiftErr        ....    0.0010
 Zerner damping         CNVZerner       .... off
 Static damping         CNVDamp         .... on
   Fraction old density DampFac         ....    0.7000
   Max. Damping (<1)    DampMax         ....    0.9800
   Min. Damping (>=0)   DampMin         ....    0.0000
   Turn off err/grad.   DampErr         ....    0.1000
 Fernandez-Rico         CNVRico         .... off

SCF Procedure:
 Maximum # iterations   MaxIter         ....   125
 SCF integral mode      SCFMode         .... Conventional
 Integral Buffer length BufferLength    .... 1048576
 Integral index format  IndFormat       ....     0
 Integral value format  ValFormat       ....     0
 Integral Storage       Thresh          ....  1.000e-08 Eh

Convergence Tolerance:
 Convergence Check Mode ConvCheckMode   .... Total+1el-Energy
 Energy Change          TolE            ....  1.000e-06 Eh
 1-El. energy change                    ....  1.000e-03 Eh
 Orbital Gradient       TolG            ....  5.000e-05
 Orbital Rotation angle TolX            ....  5.000e-05
 DIIS Error             TolErr          ....  1.000e-06


Diagonalization of the overlap matrix:
Smallest eigenvalue                        ... 1.698e-01
Time for diagonalization                   ...    0.005 sec
Threshold for overlap eigenvalues          ... 1.000e-08
Number of eigenvalues below threshold      ... 0
Time for construction of square roots      ...    0.001 sec
Total time needed                          ...    0.006 sec

-------------------------------
INITIAL GUESS: EXTENDED HUECKEL
-------------------------------
EHT matrix was read from disk
EHT matrix was diagonalized
Initial density was built
                      ------------------
                      INITIAL GUESS DONE
                      ------------------

 InCore treatment chosen:
   Memory dedicated               ...    1024 MB
   Memory needed                  ...      0 MB
   Number of tiny    integrals    ...       0
   Number of small   integrals    ...       0
   Number of regular integrals    ...    7392

--------------
SCF ITERATIONS
--------------
ITER       Energy         Delta-E        Max-DP      RMS-DP      [F,P]     Damp
  0    -16.7372555063   0.000000000000 0.04478801  0.00144164  0.1000052 0.7000
  1    -16.7788187726  -0.041563266261 0.04416064  0.00135843  0.0684347 0.7000
                               ***Turning on DIIS***
  2    -16.8095670162  -0.030748243597 0.11781167  0.00349014  0.0469630 0.0000
  3    -16.8913027031  -0.081735686908 0.02382233  0.00073288  0.0186805 0.0000
  4    -16.8747796142   0.016523088886 0.01594966  0.00050008  0.0082998 0.0000
  5    -16.8917857235  -0.017006109328 0.01123793  0.00033765  0.0049717 0.0000
  6    -16.8941832073  -0.002397483714 0.00838189  0.00023941  0.0030618 0.0000
                      *** Initiating the SOSCF procedure ***
                           *** Shutting down DIIS ***
                      *** Re-Reading the Fockian *** 
                      *** Removing any level shift *** 
ITER      Energy       Delta-E        Grad      Rot      Max-DP    RMS-DP
  7    -16.89011323   0.0040699807  0.002993  0.002993  0.005026  0.000135
  8    -16.88844101   0.0016722187  0.000797  0.002185  0.002521  0.000062
  9    -16.88845548  -0.0000144736  0.000354  0.002152  0.002808  0.000066
 10    -16.88846078  -0.0000052987  0.000029  0.000052  0.000131  0.000004
                 **** Energy Check signals convergence ****
              ***Rediagonalizing the Fockian in SOSCF/NRSCF***

               *****************************************************
               *                     SUCCESS                       *
               *           SCF CONVERGED AFTER  11 CYCLES          *
               *****************************************************


----------------
TOTAL SCF ENERGY
----------------

Total Energy       :          -16.88846082 Eh            -459.55838 eV

Components:
Nuclear Repulsion  :          623.01028641 Eh           16952.97177 eV
Electronic Energy  :         -639.89874723 Eh          -17412.53015 eV

One Electron Energy:        -1189.46991034 Eh          -32367.12177 eV
Two Electron Energy:          549.57116311 Eh           14954.59162 eV


---------------
SCF CONVERGENCE
---------------

  Last Energy change         ...   -4.3288e-08  Tolerance :   1.0000e-06
  Last MAX-Density change    ...    3.4476e-05  Tolerance :   1.0000e-05
  Last RMS-Density change    ...    1.0693e-06  Tolerance :   1.0000e-06
  Last Orbital Gradient      ...    6.5635e-06  Tolerance :   5.0000e-05
  Last Orbital Rotation      ...    1.7258e-05  Tolerance :   5.0000e-05

             **** THE GBW FILE WAS UPDATED (/Users/mattyjones/GoogleDrive/Boise/Code/MorphCT/tests/output_EZ/donor_polymer/chromophores/input_orca/pair/00023-00029.gbw) ****
             **** DENSITY FILE WAS UPDATED (/Users/mattyjones/GoogleDrive/Boise/Code/MorphCT/tests/output_EZ/donor_polymer/chromophores/input_orca/pair/00023-00029.scfp.tmp) ****
             **** ENERGY FILE WAS UPDATED (/Users/mattyjones/GoogleDrive/Boise/Code/MorphCT/tests/output_EZ/donor_polymer/chromophores/input_orca/pair/00023-00029.en.tmp) ****
----------------
ORBITAL ENERGIES
----------------

  NO   OCC          E(Eh)            E(eV) 
   0   2.0000      -1.557234       -42.3745 
   1   2.0000      -1.555255       -42.3206 
   2   2.0000      -1.416893       -38.5556 
   3   2.0000      -1.396173       -37.9918 
   4   2.0000      -1.277955       -34.7749 
   5   2.0000      -1.277377       -34.7592 
   6   2.0000      -1.187468       -32.3127 
   7   2.0000      -1.182924       -32.1890 
   8   2.0000      -1.114425       -30.3250 
   9   2.0000      -1.106532       -30.1103 
  10   2.0000      -1.051533       -28.6137 
  11   2.0000      -1.038643       -28.2629 
  12   2.0000      -0.990908       -26.9640 
  13   2.0000      -0.962766       -26.1982 
  14   2.0000      -0.906721       -24.6731 
  15   2.0000      -0.902071       -24.5466 
  16   2.0000      -0.873658       -23.7734 
  17   2.0000      -0.836562       -22.7640 
  18   2.0000      -0.829981       -22.5849 
  19   2.0000      -0.823124       -22.3983 
  20   2.0000      -0.775856       -21.1121 
  21   2.0000      -0.769574       -20.9412 
  22   2.0000      -0.742987       -20.2177 
  23   2.0000      -0.724661       -19.7190 
  24   2.0000      -0.704800       -19.1786 
  25   2.0000      -0.687746       -18.7145 
  26   2.0000      -0.669912       -18.2292 
  27   2.0000      -0.666320       -18.1315 
  28   2.0000      -0.640081       -17.4175 
  29   2.0000      -0.633196       -17.2301 
  30   2.0000      -0.620754       -16.8916 
  31   2.0000      -0.611664       -16.6442 
  32   2.0000      -0.605268       -16.4702 
  33   2.0000      -0.590742       -16.0749 
  34   2.0000      -0.580363       -15.7925 
  35   2.0000      -0.571198       -15.5431 
  36   2.0000      -0.566764       -15.4224 
  37   2.0000      -0.566721       -15.4213 
  38   2.0000      -0.549396       -14.9498 
  39   2.0000      -0.542662       -14.7666 
  40   2.0000      -0.536119       -14.5885 
  41   2.0000      -0.534687       -14.5496 
  42   2.0000      -0.522867       -14.2279 
  43   2.0000      -0.512437       -13.9441 
  44   2.0000      -0.503405       -13.6984 
  45   2.0000      -0.502433       -13.6719 
  46   2.0000      -0.499817       -13.6007 
  47   2.0000      -0.497683       -13.5426 
  48   2.0000      -0.490792       -13.3551 
  49   2.0000      -0.490070       -13.3355 
  50   2.0000      -0.479679       -13.0527 
  51   2.0000      -0.470269       -12.7967 
  52   2.0000      -0.464313       -12.6346 
  53   2.0000      -0.461462       -12.5570 
  54   2.0000      -0.457457       -12.4480 
  55   2.0000      -0.439133       -11.9494 
  56   2.0000      -0.438009       -11.9188 
  57   2.0000      -0.430287       -11.7087 
  58   2.0000      -0.357352        -9.7241 
  59   2.0000      -0.356593        -9.7034 
  60   2.0000      -0.305676        -8.3179 
  61   2.0000      -0.304378        -8.2825 
  62   0.0000       0.005728         0.1559 
  63   0.0000       0.008173         0.2224 
  64   0.0000       0.040016         1.0889 
  65   0.0000       0.071463         1.9446 
  66   0.0000       0.072805         1.9811 
  67   0.0000       0.078791         2.1440 
  68   0.0000       0.084797         2.3074 
  69   0.0000       0.087461         2.3799 
  70   0.0000       0.099259         2.7010 
  71   0.0000       0.103965         2.8290 
  72   0.0000       0.106285         2.8922 
  73   0.0000       0.108322         2.9476 
  74   0.0000       0.120802         3.2872 
  75   0.0000       0.124819         3.3965 
  76   0.0000       0.141093         3.8393 
  77   0.0000       0.145705         3.9648 
  78   0.0000       0.158466         4.3121 
  79   0.0000       0.158891         4.3237 
  80   0.0000       0.164305         4.4710 
  81   0.0000       0.165408         4.5010 
  82   0.0000       0.167943         4.5699 
  83   0.0000       0.174046         4.7360 
  84   0.0000       0.202081         5.4989 
  85   0.0000       0.205736         5.5983 
  86   0.0000       0.220262         5.9936 
  87   0.0000       0.229407         6.2425 
  88   0.0000       0.230484         6.2718 
  89   0.0000       0.231879         6.3097 
  90   0.0000       0.233737         6.3603 
  91   0.0000       0.236408         6.4330 
  92   0.0000       0.236772         6.4429 
  93   0.0000       0.239095         6.5061 
  94   0.0000       0.239198         6.5089 
  95   0.0000       0.239375         6.5137 
  96   0.0000       0.241144         6.5619 
  97   0.0000       0.242151         6.5893 
  98   0.0000       0.244361         6.6494 
  99   0.0000       0.244601         6.6559 
 100   0.0000       0.246507         6.7078 
 101   0.0000       0.255931         6.9642 
 102   0.0000       0.257840         7.0162 
 103   0.0000       0.264367         7.1938 
 104   0.0000       0.265298         7.2191 
 105   0.0000       0.267614         7.2821 
 106   0.0000       0.279190         7.5972 
 107   0.0000       0.281113         7.6495 
 108   0.0000       0.304818         8.2945 
 109   0.0000       0.307330         8.3629 
 110   0.0000       0.308860         8.4045 
 111   0.0000       0.310602         8.4519 
 112   0.0000       0.341865         9.3026 
 113   0.0000       0.342895         9.3306 
 114   0.0000       0.352762         9.5991 
 115   0.0000       0.364593         9.9211 
 116   0.0000       0.404825        11.0158 
 117   0.0000       0.408511        11.1162 
 118   0.0000       0.432941        11.7809 
 119   0.0000       0.438111        11.9216 
-------
TIMINGS
-------

Total SCF time: 0 days 0 hours 0 min 0 sec 

Total time                  ....       0.220 sec
Sum of individual times     ....       0.106 sec  ( 48.4%)

Fock matrix formation       ....       0.050 sec  ( 22.6%)
Diagonalization             ....       0.028 sec  ( 12.9%)
Density matrix formation    ....       0.006 sec  (  2.7%)
Population analysis         ....       0.000 sec  (  0.0%)
Initial guess               ....       0.004 sec  (  1.7%)
Orbital Transformation      ....       0.000 sec  (  0.0%)
Orbital Orthonormalization  ....       0.000 sec  (  0.0%)
DIIS solution               ....       0.013 sec  (  5.8%)
SOSCF solution              ....       0.006 sec  (  2.7%)

-------------------------   --------------------
FINAL SINGLE POINT ENERGY       -16.888460823388
-------------------------   --------------------


                            ***************************************
                            *     ORCA property calculations      *
                            ***************************************

                                    ---------------------
                                    Active property flags
                                    ---------------------
   (+) Dipole Moment


------------------------------------------------------------------------------
                       ORCA ELECTRIC PROPERTIES CALCULATION
------------------------------------------------------------------------------

Dipole Moment Calculation                       ... on
Quadrupole Moment Calculation                   ... off
Polarizability Calculation                      ... off
GBWName                                         ... /Users/mattyjones/GoogleDrive/Boise/Code/MorphCT/tests/output_EZ/donor_polymer/chromophores/input_orca/pair/00023-00029.gbw
Electron density file                           ... /Users/mattyjones/GoogleDrive/Boise/Code/MorphCT/tests/output_EZ/donor_polymer/chromophores/input_orca/pair/00023-00029.scfp.tmp

-------------
DIPOLE MOMENT
-------------
                                X             Y             Z
Electronic contribution:    239.72530      20.33132     -60.32240
Nuclear contribution   :   -130.53120      -8.14689      22.94384
                        -----------------------------------------
Total Dipole Moment    :    109.19410      12.18443     -37.37857
                        -----------------------------------------
Magnitude (a.u.)       :    116.05589
Magnitude (Debye)      :    294.99062


Timings for individual modules:

Sum of individual times         ...        0.328 sec (=   0.005 min)
STO integral calculation        ...        0.059 sec (=   0.001 min)  18.0 %
SCF iterations                  ...        0.269 sec (=   0.004 min)  82.0 %
                             ****ORCA TERMINATED NORMALLY****
TOTAL RUN TIME: 0 days 0 hours 0 minutes 0 seconds 623 msec

