
                                 *****************
                                 * O   R   C   A *
                                 *****************

           --- An Ab Initio, DFT and Semiempirical electronic structure package ---

                  #######################################################
                  #                        -***-                        #
                  #  Department of molecular theory and spectroscopy    #
                  #              Directorship: Frank Neese              #
                  # Max Planck Institute for Chemical Energy Conversion #
                  #                  D-45470 Muelheim/Ruhr              #
                  #                       Germany                       #
                  #                                                     #
                  #                  All rights reserved                #
                  #                        -***-                        #
                  #######################################################


                         Program Version 3.0.3 - RELEASE   -


 With contributions from (in alphabetic order):
   Ute Becker             : Parallelization
   Dmytro Bykov           : SCF Hessian
   Dmitry Ganyushin       : Spin-Orbit,Spin-Spin,Magnetic field MRCI
   Andreas Hansen         : Spin unrestricted coupled pair/coupled cluster methods
   Dimitrios Liakos       : Extrapolation schemes; parallel MDCI
   Robert Izsak           : Overlap fitted RIJCOSX, COSX-SCS-MP3
   Christian Kollmar      : KDIIS, OOCD, Brueckner-CCSD(T), CCSD density
   Simone Kossmann        : Meta GGA functionals, TD-DFT gradient, OOMP2, MP2 Hessian
   Taras Petrenko         : DFT Hessian,TD-DFT gradient, ASA and ECA modules, normal mode analysis, Resonance Raman, ABS, FL, XAS/XES, NRVS
   Christoph Reimann      : Effective Core Potentials
   Michael Roemelt        : Restricted open shell CIS
   Christoph Riplinger    : Improved optimizer, TS searches, QM/MM, DLPNO-CCSD
   Barbara Sandhoefer     : DKH picture change effects
   Igor Schapiro          : Molecular dynamics
   Kantharuban Sivalingam : CASSCF convergence, NEVPT2
   Boris Wezisla          : Elementary symmetry handling
   Frank Wennmohs         : Technical directorship


 We gratefully acknowledge several colleagues who have allowed us to
 interface, adapt or use parts of their codes:
   Stefan Grimme, W. Hujo, H. Kruse, T. Risthaus : VdW corrections, initial TS optimization,
                                                   DFT functionals, gCP
   Ed Valeev                                     : LibInt (2-el integral package), F12 methods
   Garnet Chan, S. Sharma, R. Olivares           : DMRG
   Ulf Ekstrom                                   : XCFun DFT Library
   Mihaly Kallay                                 : mrcc  (arbitrary order and MRCC methods)
   Andreas Klamt, Michael Diedenhofen            : otool_cosmo (COSMO solvation model)
   Frank Weinhold                                : gennbo (NPA and NBO analysis)
   Christopher J. Cramer and Donald G. Truhlar   : smd solvation model


 Your calculation uses the libint2 library for the computation of 2-el integrals
 For citations please refer to: http://libint.valeyev.net

 This ORCA versions uses:
   CBLAS   interface :  Fast vector & matrix operations
   LAPACKE interface :  Fast linear algebra routines
   SCALAPACK package :  Parallel linear algebra routines


leaving
================================================================================
                                        WARNINGS
                       Please study these warnings very carefully!
================================================================================
Now building the actual basis set

WARNING: Direct SCF is incompatible with Method<>HF and Method<>DFT
  ===> : conventional SCF is chosen

WARNING: The NDO methods need Guess=HUECKEL or Guess=HCORE or Guess=MOREAD
  ===> : Guess is set to Hueckel

WARNING: The NDO methods need %rel::SOCType==1
  ===> : %rel::SOCType is set to 1

WARNING: The NDO methods cannot have frozencore=1
  ===> : %method FrozenCore=0 end


INFO   : the flag for use of LIBINT has been found!

================================================================================
                                       INPUT FILE
================================================================================
NAME = /Users/mattyjones/GoogleDrive/Boise/Code/MorphCT/tests/output_EZ/donor_polymer/chromophores/input_orca/pair/00023-00025.inp
|  1> # ================================================================
|  2> # Orca input file made by Matty Jones
|  3> # ================================================================
|  4> ! ZINDO/S 
|  5> ! NOPOP
|  6> ! NOMOPRINT
|  7> * xyz 0   1
|  8>  C  5.47317  -2.35036  -4.37742
|  9>  C  4.11045  -2.58982  -4.19421
| 10>  C  3.44604  -1.60398  -3.39989
| 11>  C  4.28836  -0.58091  -2.95364
| 12>  S  5.78973  -0.94482  -3.55686
| 13>  H  3.56120  -3.48901  -4.63576
| 14>  C  1.88063  -1.59497  -3.01116
| 15>  C  1.17542  -2.88586  -2.18108
| 16>  C  1.29350  -2.63110  -0.51197
| 17>  H  1.43308  -3.66837  -0.01620
| 18>  H  2.24706  -2.00458  -0.31384
| 19>  H  0.06514  -2.96011  -2.47095
| 20>  H  1.72256  -3.85877  -2.45047
| 21>  H  1.63544  -0.64029  -2.39108
| 22>  H  1.26217  -1.50824  -4.00351
| 23>  C  0.01286  -1.89135  0.16863
| 24>  C  0.01328  -0.20877  0.03193
| 25>  C  -1.13823  0.50078  -0.97762
| 26>  H  -0.60624  1.20919  -1.72347
| 27>  H  -1.90358  1.11692  -0.36843
| 28>  H  -1.69895  -0.32603  -1.56259
| 29>  H  0.01275  0.14879  1.11623
| 30>  H  1.02373  0.07626  -0.43905
| 31>  H  -0.96189  -2.28562  -0.31061
| 32>  H  -0.00869  -2.13917  1.30037
| 33>  C  2.07187  3.64315  0.21416
| 34>  C  1.14975  2.97610  1.02203
| 35>  C  0.39965  3.83545  1.88407
| 36>  C  0.73113  5.18790  1.75626
| 37>  S  1.91816  5.24841  0.59966
| 38>  H  1.21086  1.85545  1.21802
| 39>  C  -0.72471  3.24805  2.89798
| 40>  C  -1.88801  2.22591  2.15470
| 41>  C  -3.21503  1.31657  2.74843
| 42>  H  -3.52133  1.80468  3.75068
| 43>  H  -4.07649  1.45450  1.98922
| 44>  H  -1.25412  1.44596  1.63855
| 45>  H  -2.37392  2.91836  1.35917
| 46>  H  -1.31807  4.11436  3.39502
| 47>  H  -0.21360  2.62715  3.73492
| 48>  C  -2.98963  -0.28397  2.99607
| 49>  C  -3.08932  -1.26670  1.60894
| 50>  C  -4.58452  -1.84836  1.09539
| 51>  H  -4.41965  -2.78795  0.43805
| 52>  H  -5.11396  -1.03124  0.46921
| 53>  H  -5.23378  -2.12321  2.01094
| 54>  H  -2.42466  -2.18924  1.81132
| 55>  H  -2.65575  -0.66255  0.73658
| 56>  H  -3.79432  -0.66950  3.73211
| 57>  H  -1.94609  -0.45721  3.46057
| 58>  H  6.16076  -2.94226  -4.92558
| 59>  H  4.02286  0.25269  -2.35512
| 60>  H  2.73140  3.21400  -0.49609
| 61>  H  0.31156  6.00364  2.28741
| 62> *
| 63> 
| 64>                          ****END OF INPUT****
================================================================================

                       ****************************
                       * Single Point Calculation *
                       ****************************

---------------------------------
CARTESIAN COORDINATES (ANGSTROEM)
---------------------------------
  C      5.473170   -2.350360   -4.377420
  C      4.110450   -2.589820   -4.194210
  C      3.446040   -1.603980   -3.399890
  C      4.288360   -0.580910   -2.953640
  S      5.789730   -0.944820   -3.556860
  H      3.561200   -3.489010   -4.635760
  C      1.880630   -1.594970   -3.011160
  C      1.175420   -2.885860   -2.181080
  C      1.293500   -2.631100   -0.511970
  H      1.433080   -3.668370   -0.016200
  H      2.247060   -2.004580   -0.313840
  H      0.065140   -2.960110   -2.470950
  H      1.722560   -3.858770   -2.450470
  H      1.635440   -0.640290   -2.391080
  H      1.262170   -1.508240   -4.003510
  C      0.012860   -1.891350    0.168630
  C      0.013280   -0.208770    0.031930
  C     -1.138230    0.500780   -0.977620
  H     -0.606240    1.209190   -1.723470
  H     -1.903580    1.116920   -0.368430
  H     -1.698950   -0.326030   -1.562590
  H      0.012750    0.148790    1.116230
  H      1.023730    0.076260   -0.439050
  H     -0.961890   -2.285620   -0.310610
  H     -0.008690   -2.139170    1.300370
  C      2.071870    3.643150    0.214160
  C      1.149750    2.976100    1.022030
  C      0.399650    3.835450    1.884070
  C      0.731130    5.187900    1.756260
  S      1.918160    5.248410    0.599660
  H      1.210860    1.855450    1.218020
  C     -0.724710    3.248050    2.897980
  C     -1.888010    2.225910    2.154700
  C     -3.215030    1.316570    2.748430
  H     -3.521330    1.804680    3.750680
  H     -4.076490    1.454500    1.989220
  H     -1.254120    1.445960    1.638550
  H     -2.373920    2.918360    1.359170
  H     -1.318070    4.114360    3.395020
  H     -0.213600    2.627150    3.734920
  C     -2.989630   -0.283970    2.996070
  C     -3.089320   -1.266700    1.608940
  C     -4.584520   -1.848360    1.095390
  H     -4.419650   -2.787950    0.438050
  H     -5.113960   -1.031240    0.469210
  H     -5.233780   -2.123210    2.010940
  H     -2.424660   -2.189240    1.811320
  H     -2.655750   -0.662550    0.736580
  H     -3.794320   -0.669500    3.732110
  H     -1.946090   -0.457210    3.460570
  H      6.160760   -2.942260   -4.925580
  H      4.022860    0.252690   -2.355120
  H      2.731400    3.214000   -0.496090
  H      0.311560    6.003640    2.287410

----------------------------
CARTESIAN COORDINATES (A.U.)
----------------------------
  NO LB      ZA    FRAG    MASS        X           Y           Z
   0 C     4.0000    0    12.011         10.342792384393777         -4.441536716123153         -8.272124973149566
   1 C     4.0000    0    12.011          7.767624787176609         -4.894050536151936         -7.925908248153853
   2 C     4.0000    0    12.011          6.512071846537990         -3.031082924287009         -6.424860985457524
   3 C     4.0000    0    12.011          8.103825963662539         -1.097760808456194         -5.581570698195166
   4 S     6.0000    0    32.060         10.941004089347887         -1.785451045851477         -6.721491296699143
   5 H     1.0000    0     1.008          6.729692708120361         -6.593273378512587         -8.760316822586782
   6 C     4.0000    0    12.011          3.553875659236323         -3.014056491820379         -5.690267745418316
   7 C     4.0000    0    12.011          2.221221892333717         -5.453485060837983         -4.121643876172964
   8 C     4.0000    0    12.011          2.444360754227139         -4.972058430960205         -0.967483088783663
   9 H     1.0000    0     1.008          2.708128727999867         -6.932214657892702         -0.030613563369524
  10 H     1.0000    0     1.008          4.246328006489088         -3.788107213535862         -0.593071649869846
  11 H     1.0000    0     1.008          0.123096760363630         -5.593797226281636         -4.669418790612717
  12 H     1.0000    0     1.008          3.255166649247391         -7.292018513791308         -4.630717199390010
  13 H     1.0000    0     1.008          3.090533708460172         -1.209972746288438         -4.518486364296427
  14 H     1.0000    0     1.008          2.385155634451386         -2.850160544225389         -7.565537474415071
  15 C     4.0000    0    12.011          0.024301878082227         -3.574133523391959          0.318664517963141
  16 C     4.0000    0    12.011          0.025095563058474         -0.394518124978740          0.060338955456106
  17 C     4.0000    0    12.011         -2.150942977413187          0.946337053345084         -1.847434063044094
  18 H     1.0000    0     1.008         -1.145627571428420          2.285037943876238         -3.256886300029260
  19 H     1.0000    0     1.008         -3.597244874009816          2.110672913499324         -0.696231799520607
  20 H     1.0000    0     1.008         -3.210550215225510         -0.616107411442346         -2.952867159604009
  21 H     1.0000    0     1.008          0.024094008207496          0.281172351466143          2.109369002466919
  22 H     1.0000    0     1.008          1.934569335079203          0.144110514972835         -0.829684259098125
  23 H     1.0000    0     1.008         -1.817708670957513         -4.319195846213091         -0.586967834457280
  24 H     1.0000    0     1.008         -0.016421720103776         -4.042445453900324          2.457343172767178
  25 C     4.0000    0    12.011          3.915266885087424          6.884555764795207          0.404703748840575
  26 C     4.0000    0    12.011          2.172712622475959          5.624013947163037          1.931356800651537
  27 C     4.0000    0    12.011          0.755229049421628          7.247950100348264          3.560376317137012
  28 C     4.0000    0    12.011          1.381635468293845          9.803710210170062          3.318850419960537
  29 S     6.0000    0    32.060          3.624797081042388          9.918057538533636          1.133193173467218
  30 H     1.0000    0     1.008          2.288193786519887          3.506292355184187          2.301724225638763
  31 C     4.0000    0    12.011         -1.369503426514070          6.137924969282921          5.476388541581109
  32 C     4.0000    0    12.011         -3.567821838104662          4.206360298756653          4.071792900760121
  33 C     4.0000    0    12.011         -6.075526212340842          2.487956736136702          5.193779998253185
  34 H     1.0000    0     1.008         -6.654349327160920          3.410350959365005          7.087758015975760
  35 H     1.0000    0     1.008         -7.703449687668643          2.748606661788461          3.759081020118832
  36 H     1.0000    0     1.008         -2.369943339073320          2.732468400604773          3.096410756736667
  37 H     1.0000    0     1.008         -4.486058663838338          5.514901160190424          2.568459069441748
  38 H     1.0000    0     1.008         -2.490791325337584          7.775013616360241          6.415658019185329
  39 H     1.0000    0     1.008         -0.403645502205579          4.964594012731216          7.057975932105161
  40 C     4.0000    0    12.011         -5.649581941754992         -0.536625530249618          5.661751778057445
  41 C     4.0000    0    12.011         -5.837968740045601         -2.393716093838049          3.040455965911259
  42 C     4.0000    0    12.011         -8.663487255484657         -3.492894196894685          2.069987109836000
  43 H     1.0000    0     1.008         -8.351928107785060         -5.268461975065754          0.827794532964204
  44 H     1.0000    0     1.008         -9.663983859827923         -1.948761178344951          0.886678399297191
  45 H     1.0000    0     1.008         -9.890410845194369         -4.012285424802941          3.800125871747602
  46 H     1.0000    0     1.008         -4.581943367873501         -4.137064041425761          3.422898740894242
  47 H     1.0000    0     1.008         -5.018640180161364         -1.252038050029525          1.391934475723716
  48 H     1.0000    0     1.008         -7.170225664460084         -1.265171646660278          7.052665801668843
  49 H     1.0000    0     1.008         -3.677577131962809         -0.864001685690135          6.539529567263866
  50 H     1.0000    0     1.008         11.642149176816689         -5.560065614791142         -9.307997250719838
  51 H     1.0000    0     1.008          7.602103675106446          0.477514896780561         -4.450531812520618
  52 H     1.0000    0     1.008          5.161597962192507          6.073579794422903         -0.937474237776994
  53 H     1.0000    0     1.008          0.588763074284505         11.345235406654982          4.322578455992810

--------------------------------
INTERNAL COORDINATES (ANGSTROEM)
--------------------------------
 C      0   0   0   0.000000     0.000     0.000
 C      1   0   0   1.395676     0.000     0.000
 C      2   1   0   1.429778   114.101     0.000
 C      3   2   1   1.398326   113.693     0.000
 S      1   2   3   1.658032   105.480     0.000
 H      2   1   3   1.142447   123.623   179.892
 C      3   2   1   1.612979   126.067   179.878
 C      7   3   2   1.689009   121.291    58.033
 C      8   7   3   1.692564   109.906    89.569
 H      9   8   7   1.158102   107.203   214.082
 H      9   8   7   1.158041   107.915   330.405
 H      8   7   3   1.149895   109.184   209.088
 H      8   7   3   1.148254   109.471   329.874
 H      7   3   2   1.164488   109.710   182.229
 H      7   3   2   1.172507   107.960   297.547
 C      9   8   7   1.628031   115.200    92.806
 C     16   9   8   1.688124   114.762   277.563
 C     17  16   9   1.687788   117.858   110.559
 H     18  17  16   1.158080   109.207   232.501
 H     18  17  16   1.156072   111.133   112.825
 H     18  17  16   1.157675   109.417   352.353
 H     17  16   9   1.141734   103.606   240.010
 H     17  16   9   1.150684   106.275   353.875
 H     16   9   8   1.155533   109.581    39.068
 H     16   9   8   1.158756   109.011   157.607
 C     23  17  16   3.774650   114.021   201.846
 C     26  23  17   1.395677    57.661    21.560
 C     27  26  23   1.429771   114.101   194.974
 C     28  27  26   1.398333   113.694     0.000
 S     26  23  17   1.658040   158.337   339.142
 H     27  26  23   1.139299   122.293    32.992
 C     28  27  26   1.623957   121.484   179.878
 C     32  28  27   1.717703   114.454   308.143
 C     33  32  28   1.714758   133.617   177.191
 H     34  33  32   1.156104   106.338    22.682
 H     34  33  32   1.156520   106.613   138.593
 H     33  32  28   1.129845   103.209    54.187
 H     33  32  28   1.161234   103.002   300.251
 H     32  28  27   1.161731   110.550   187.980
 H     32  28  27   1.160698   109.804    68.448
 C     34  33  32   1.635194   117.699   260.761
 C     41  34  33   1.702888   115.686   279.535
 C     42  41  34   1.684543   119.971   273.457
 H     43  42  41   1.158494   109.069   202.078
 H     43  42  41   1.157624   109.094    82.745
 H     43  42  41   1.155557   109.834   322.296
 H     42  41  34   1.154907   106.532   152.227
 H     42  41  34   1.146295   107.074    34.932
 H     41  34  33   1.156682   109.070   159.456
 H     41  34  33   1.155313   109.400    40.537
 H      1   2   3   1.060002   127.260   180.000
 H      4   3   2   1.060003   127.206   180.000
 H     26  23  17   1.060002    70.989   188.998
 H     29  28  27   1.059996   127.206   180.000

---------------------------
INTERNAL COORDINATES (A.U.)
---------------------------
 C      0   0   0   0.000000     0.000     0.000
 C      1   0   0   2.637446     0.000     0.000
 C      2   1   0   2.701889   114.101     0.000
 C      3   2   1   2.642452   113.693     0.000
 S      1   2   3   3.133227   105.480     0.000
 H      2   1   3   2.158912   123.623   179.892
 C      3   2   1   3.048088   126.067   179.878
 C      7   3   2   3.191764   121.291    58.033
 C      8   7   3   3.198483   109.906    89.569
 H      9   8   7   2.188495   107.203   214.082
 H      9   8   7   2.188381   107.915   330.405
 H      8   7   3   2.172987   109.184   209.088
 H      8   7   3   2.169885   109.471   329.874
 H      7   3   2   2.200563   109.710   182.229
 H      7   3   2   2.215718   107.960   297.547
 C      9   8   7   3.076533   115.200    92.806
 C     16   9   8   3.190092   114.762   277.563
 C     17  16   9   3.189457   117.858   110.559
 H     18  17  16   2.188455   109.207   232.501
 H     18  17  16   2.184659   111.133   112.825
 H     18  17  16   2.187689   109.417   352.353
 H     17  16   9   2.157564   103.606   240.010
 H     17  16   9   2.174477   106.275   353.875
 H     16   9   8   2.183642   109.581    39.068
 H     16   9   8   2.189731   109.011   157.607
 C     23  17  16   7.133055   114.021   201.846
 C     26  23  17   2.637448    57.661    21.560
 C     27  26  23   2.701876   114.101   194.974
 C     28  27  26   2.642467   113.694     0.000
 S     26  23  17   3.133242   158.337   339.142
 H     27  26  23   2.152964   122.293    32.992
 C     28  27  26   3.068835   121.484   179.878
 C     32  28  27   3.245987   114.454   308.143
 C     33  32  28   3.240424   133.617   177.191
 H     34  33  32   2.184720   106.338    22.682
 H     34  33  32   2.185506   106.613   138.593
 H     33  32  28   2.135097   103.209    54.187
 H     33  32  28   2.194414   103.002   300.251
 H     32  28  27   2.195353   110.550   187.980
 H     32  28  27   2.193400   109.804    68.448
 C     34  33  32   3.090069   117.699   260.761
 C     41  34  33   3.217991   115.686   279.535
 C     42  41  34   3.183325   119.971   273.457
 H     43  42  41   2.189236   109.069   202.078
 H     43  42  41   2.187592   109.094    82.745
 H     43  42  41   2.183687   109.834   322.296
 H     42  41  34   2.182458   106.532   152.227
 H     42  41  34   2.166184   107.074    34.932
 H     41  34  33   2.185813   109.070   159.456
 H     41  34  33   2.183225   109.400    40.537
 H      1   2   3   2.003114   127.260   180.000
 H      4   3   2   2.003115   127.206   180.000
 H     26  23  17   2.003114    70.989   188.998
 H     29  28  27   2.003102   127.206   180.000

----------------------------
SLATER BASIS SET DIM= 120
----------------------------
  0 C     2 shells
 l=0 nsto= 1
    2       1.625000000000        1.000000000000
 l=1 nsto= 1
    2       1.625000000000        1.000000000000
  1 C     2 shells
 l=0 nsto= 1
    2       1.625000000000        1.000000000000
 l=1 nsto= 1
    2       1.625000000000        1.000000000000
  2 C     2 shells
 l=0 nsto= 1
    2       1.625000000000        1.000000000000
 l=1 nsto= 1
    2       1.625000000000        1.000000000000
  3 C     2 shells
 l=0 nsto= 1
    2       1.625000000000        1.000000000000
 l=1 nsto= 1
    2       1.625000000000        1.000000000000
  4 S     2 shells
 l=0 nsto= 1
    3       1.925000000000        1.000000000000
 l=1 nsto= 1
    3       1.925000000000        1.000000000000
  5 H     1 shells
 l=0 nsto= 1
    1       1.200000000000        1.000000000000
  6 C     2 shells
 l=0 nsto= 1
    2       1.625000000000        1.000000000000
 l=1 nsto= 1
    2       1.625000000000        1.000000000000
  7 C     2 shells
 l=0 nsto= 1
    2       1.625000000000        1.000000000000
 l=1 nsto= 1
    2       1.625000000000        1.000000000000
  8 C     2 shells
 l=0 nsto= 1
    2       1.625000000000        1.000000000000
 l=1 nsto= 1
    2       1.625000000000        1.000000000000
  9 H     1 shells
 l=0 nsto= 1
    1       1.200000000000        1.000000000000
 10 H     1 shells
 l=0 nsto= 1
    1       1.200000000000        1.000000000000
 11 H     1 shells
 l=0 nsto= 1
    1       1.200000000000        1.000000000000
 12 H     1 shells
 l=0 nsto= 1
    1       1.200000000000        1.000000000000
 13 H     1 shells
 l=0 nsto= 1
    1       1.200000000000        1.000000000000
 14 H     1 shells
 l=0 nsto= 1
    1       1.200000000000        1.000000000000
 15 C     2 shells
 l=0 nsto= 1
    2       1.625000000000        1.000000000000
 l=1 nsto= 1
    2       1.625000000000        1.000000000000
 16 C     2 shells
 l=0 nsto= 1
    2       1.625000000000        1.000000000000
 l=1 nsto= 1
    2       1.625000000000        1.000000000000
 17 C     2 shells
 l=0 nsto= 1
    2       1.625000000000        1.000000000000
 l=1 nsto= 1
    2       1.625000000000        1.000000000000
 18 H     1 shells
 l=0 nsto= 1
    1       1.200000000000        1.000000000000
 19 H     1 shells
 l=0 nsto= 1
    1       1.200000000000        1.000000000000
 20 H     1 shells
 l=0 nsto= 1
    1       1.200000000000        1.000000000000
 21 H     1 shells
 l=0 nsto= 1
    1       1.200000000000        1.000000000000
 22 H     1 shells
 l=0 nsto= 1
    1       1.200000000000        1.000000000000
 23 H     1 shells
 l=0 nsto= 1
    1       1.200000000000        1.000000000000
 24 H     1 shells
 l=0 nsto= 1
    1       1.200000000000        1.000000000000
 25 C     2 shells
 l=0 nsto= 1
    2       1.625000000000        1.000000000000
 l=1 nsto= 1
    2       1.625000000000        1.000000000000
 26 C     2 shells
 l=0 nsto= 1
    2       1.625000000000        1.000000000000
 l=1 nsto= 1
    2       1.625000000000        1.000000000000
 27 C     2 shells
 l=0 nsto= 1
    2       1.625000000000        1.000000000000
 l=1 nsto= 1
    2       1.625000000000        1.000000000000
 28 C     2 shells
 l=0 nsto= 1
    2       1.625000000000        1.000000000000
 l=1 nsto= 1
    2       1.625000000000        1.000000000000
 29 S     2 shells
 l=0 nsto= 1
    3       1.925000000000        1.000000000000
 l=1 nsto= 1
    3       1.925000000000        1.000000000000
 30 H     1 shells
 l=0 nsto= 1
    1       1.200000000000        1.000000000000
 31 C     2 shells
 l=0 nsto= 1
    2       1.625000000000        1.000000000000
 l=1 nsto= 1
    2       1.625000000000        1.000000000000
 32 C     2 shells
 l=0 nsto= 1
    2       1.625000000000        1.000000000000
 l=1 nsto= 1
    2       1.625000000000        1.000000000000
 33 C     2 shells
 l=0 nsto= 1
    2       1.625000000000        1.000000000000
 l=1 nsto= 1
    2       1.625000000000        1.000000000000
 34 H     1 shells
 l=0 nsto= 1
    1       1.200000000000        1.000000000000
 35 H     1 shells
 l=0 nsto= 1
    1       1.200000000000        1.000000000000
 36 H     1 shells
 l=0 nsto= 1
    1       1.200000000000        1.000000000000
 37 H     1 shells
 l=0 nsto= 1
    1       1.200000000000        1.000000000000
 38 H     1 shells
 l=0 nsto= 1
    1       1.200000000000        1.000000000000
 39 H     1 shells
 l=0 nsto= 1
    1       1.200000000000        1.000000000000
 40 C     2 shells
 l=0 nsto= 1
    2       1.625000000000        1.000000000000
 l=1 nsto= 1
    2       1.625000000000        1.000000000000
 41 C     2 shells
 l=0 nsto= 1
    2       1.625000000000        1.000000000000
 l=1 nsto= 1
    2       1.625000000000        1.000000000000
 42 C     2 shells
 l=0 nsto= 1
    2       1.625000000000        1.000000000000
 l=1 nsto= 1
    2       1.625000000000        1.000000000000
 43 H     1 shells
 l=0 nsto= 1
    1       1.200000000000        1.000000000000
 44 H     1 shells
 l=0 nsto= 1
    1       1.200000000000        1.000000000000
 45 H     1 shells
 l=0 nsto= 1
    1       1.200000000000        1.000000000000
 46 H     1 shells
 l=0 nsto= 1
    1       1.200000000000        1.000000000000
 47 H     1 shells
 l=0 nsto= 1
    1       1.200000000000        1.000000000000
 48 H     1 shells
 l=0 nsto= 1
    1       1.200000000000        1.000000000000
 49 H     1 shells
 l=0 nsto= 1
    1       1.200000000000        1.000000000000
 50 H     1 shells
 l=0 nsto= 1
    1       1.200000000000        1.000000000000
 51 H     1 shells
 l=0 nsto= 1
    1       1.200000000000        1.000000000000
 52 H     1 shells
 l=0 nsto= 1
    1       1.200000000000        1.000000000000
 53 H     1 shells
 l=0 nsto= 1
    1       1.200000000000        1.000000000000
------------------------------------------------------------------------------
                           ORCA NDO INTEGRAL CALCULATION
------------------------------------------------------------------------------

--------------
NDO PARAMETERS
--------------

Gamma integral treatment              ... Mataga-Nishimoto
Nuclear repulsuion treatment          ... Direct (ZA*ZB/RAB)
Interaction factors:
s-s (sigma) =    1.0000
s-p (sigma) =    1.0000
s-d (sigma) =    1.0000
p-p (sigma) =    1.2670  p-p(pi) =    0.5850
p-d (sigma) =    1.0000  p-d(pi) =    1.0000
d-d (sigma) =    1.0000  d-d(pi) =    1.0000 d-d (delta) =    1.0000

fGamma parameter for Mataga-Nishimoto gamma integrals:    1.2000

--------------------------
Parameters for Element H :
--------------------------
 One-electron parameters (in eV)
  U(s)  =   -13.060000 Beta(s) =    12.000000 Neff(s) =     1.000000
 One-center electron repulsion parameters (in eV)
  G(s,s)=    12.850000
--------------------------
Parameters for Element C :
--------------------------
 One-electron parameters (in eV)
  U(s)  =   -50.870766 Beta(s) =    17.000000 Neff(s) =     2.000000
  U(p)  =   -41.599980 Beta(p) =    17.000000 Neff(p) =     2.000000 
 One-center electron repulsion parameters (in eV)
  G(s,s)=    11.110000
  G(s,p)=    11.110000 G(p,p)  =    11.110000
 Slater-Condon parameters (in eV)
 F2(p,p)=     4.5098 G1(s,p)=    6.8977
--------------------------
Parameters for Element S :
--------------------------
 One-electron parameters (in eV)
  U(s)  =   -69.509597 Beta(s) =    15.000000 Neff(s) =     2.000000
  U(p)  =   -60.725746 Beta(p) =    15.000000 Neff(p) =     4.000000 
 One-center electron repulsion parameters (in eV)
  G(s,s)=    10.090000
  G(s,p)=    10.090000 G(p,p)  =    10.090000
 Slater-Condon parameters (in eV)
 F2(p,p)=     4.5377 G1(s,p)=    3.0756

 Number of atoms                    ....   54
 Number of basis functions          ....  120

 Overlap integrals                  .... done
 One electron matrix                .... done
 Nuclear repulsion                  .... done
 Integral list                      .... done
 Electron-electron repulsion        .... done
-------------------------------------------------------------------------------
                                 ORCA SCF
-------------------------------------------------------------------------------

------------
SCF SETTINGS
------------
Hamiltonian:
 ZDO-Hamiltonian        Method          .... INDO


General Settings:
 Integral files         IntName         .... /Users/mattyjones/GoogleDrive/Boise/Code/MorphCT/tests/output_EZ/donor_polymer/chromophores/input_orca/pair/00023-00025
 Hartree-Fock type      HFTyp           .... RHF
 Total Charge           Charge          ....    0
 Multiplicity           Mult            ....    1
 Number of Electrons    NEL             ....  124
 Basis Dimension        Dim             ....  120
 Nuclear Repulsion      ENuc            ....    902.5947948797 Eh

Convergence Acceleration:
 DIIS                   CNVDIIS         .... on
   Start iteration      DIISMaxIt       ....    12
   Startup error        DIISStart       ....  0.200000
   # of expansion vecs  DIISMaxEq       ....     5
   Bias factor          DIISBfac        ....   1.050
   Max. coefficient     DIISMaxC        ....  10.000
 Newton-Raphson         CNVNR           .... off
 SOSCF                  CNVSOSCF        .... on
   Start iteration      SOSCFMaxIt      ....   150
   Startup grad/error   SOSCFStart      ....  0.003300
 Level Shifting         CNVShift        .... on
   Level shift para.    LevelShift      ....    0.2500
   Turn off err/grad.   ShiftErr        ....    0.0010
 Zerner damping         CNVZerner       .... off
 Static damping         CNVDamp         .... on
   Fraction old density DampFac         ....    0.7000
   Max. Damping (<1)    DampMax         ....    0.9800
   Min. Damping (>=0)   DampMin         ....    0.0000
   Turn off err/grad.   DampErr         ....    0.1000
 Fernandez-Rico         CNVRico         .... off

SCF Procedure:
 Maximum # iterations   MaxIter         ....   125
 SCF integral mode      SCFMode         .... Conventional
 Integral Buffer length BufferLength    .... 1048576
 Integral index format  IndFormat       ....     0
 Integral value format  ValFormat       ....     0
 Integral Storage       Thresh          ....  1.000e-08 Eh

Convergence Tolerance:
 Convergence Check Mode ConvCheckMode   .... Total+1el-Energy
 Energy Change          TolE            ....  1.000e-06 Eh
 1-El. energy change                    ....  1.000e-03 Eh
 Orbital Gradient       TolG            ....  5.000e-05
 Orbital Rotation angle TolX            ....  5.000e-05
 DIIS Error             TolErr          ....  1.000e-06


Diagonalization of the overlap matrix:
Smallest eigenvalue                        ... 1.696e-01
Time for diagonalization                   ...    0.003 sec
Threshold for overlap eigenvalues          ... 1.000e-08
Number of eigenvalues below threshold      ... 0
Time for construction of square roots      ...    0.001 sec
Total time needed                          ...    0.004 sec

-------------------------------
INITIAL GUESS: EXTENDED HUECKEL
-------------------------------
EHT matrix was read from disk
EHT matrix was diagonalized
Initial density was built
                      ------------------
                      INITIAL GUESS DONE
                      ------------------

 InCore treatment chosen:
   Memory dedicated               ...    1024 MB
   Memory needed                  ...      0 MB
   Number of tiny    integrals    ...       0
   Number of small   integrals    ...       0
   Number of regular integrals    ...    7392

--------------
SCF ITERATIONS
--------------
ITER       Energy         Delta-E        Max-DP      RMS-DP      [F,P]     Damp
  0      0.6836223807   0.000000000000 0.04201551  0.00144814  0.1134812 0.7000
  1      0.6418510807  -0.041771299955 0.03987823  0.00136352  0.0773440 0.7000
                               ***Turning on DIIS***
  2      0.6109732154  -0.030877865302 0.10181594  0.00349646  0.0490655 0.0000
  3      0.5380801409  -0.072893074460 0.01907642  0.00071853  0.0222783 0.0000
  4      0.5442131805   0.006133039607 0.01161131  0.00049556  0.0072714 0.0000
  5      0.5288765545  -0.015336626029 0.00790269  0.00032375  0.0042332 0.0000
  6      0.5251333961  -0.003743158367 0.00584298  0.00023334  0.0023635 0.0000
                      *** Initiating the SOSCF procedure ***
                           *** Shutting down DIIS ***
                      *** Re-Reading the Fockian *** 
                      *** Removing any level shift *** 
ITER      Energy       Delta-E        Grad      Rot      Max-DP    RMS-DP
  7      0.52842254   0.0032891442  0.003251  0.003251  0.003878  0.000146
  8      0.53186328   0.0034407377  0.000885  0.002443  0.001880  0.000067
  9      0.53184661  -0.0000166664  0.000379  0.002350  0.002123  0.000071
 10      0.53184045  -0.0000061591  0.000039  0.000066  0.000124  0.000004
                 **** Energy Check signals convergence ****
              ***Rediagonalizing the Fockian in SOSCF/NRSCF***

               *****************************************************
               *                     SUCCESS                       *
               *           SCF CONVERGED AFTER  11 CYCLES          *
               *****************************************************


----------------
TOTAL SCF ENERGY
----------------

Total Energy       :            0.53184039 Eh              14.47211 eV

Components:
Nuclear Repulsion  :          902.59479488 Eh           24560.85302 eV
Electronic Energy  :         -902.06295448 Eh          -24546.38091 eV

One Electron Energy:        -1713.63379693 Eh          -46630.34626 eV
Two Electron Energy:          811.57084245 Eh           22083.96535 eV


---------------
SCF CONVERGENCE
---------------

  Last Energy change         ...   -5.7712e-08  Tolerance :   1.0000e-06
  Last MAX-Density change    ...    5.9202e-05  Tolerance :   1.0000e-05
  Last RMS-Density change    ...    1.6374e-06  Tolerance :   1.0000e-06
  Last Orbital Gradient      ...    1.5366e-05  Tolerance :   5.0000e-05
  Last Orbital Rotation      ...    3.7284e-05  Tolerance :   5.0000e-05

             **** THE GBW FILE WAS UPDATED (/Users/mattyjones/GoogleDrive/Boise/Code/MorphCT/tests/output_EZ/donor_polymer/chromophores/input_orca/pair/00023-00025.gbw) ****
             **** DENSITY FILE WAS UPDATED (/Users/mattyjones/GoogleDrive/Boise/Code/MorphCT/tests/output_EZ/donor_polymer/chromophores/input_orca/pair/00023-00025.scfp.tmp) ****
             **** ENERGY FILE WAS UPDATED (/Users/mattyjones/GoogleDrive/Boise/Code/MorphCT/tests/output_EZ/donor_polymer/chromophores/input_orca/pair/00023-00025.en.tmp) ****
----------------
ORBITAL ENERGIES
----------------

  NO   OCC          E(Eh)            E(eV) 
   0   2.0000      -1.560410       -42.4609 
   1   2.0000      -1.557738       -42.3882 
   2   2.0000      -1.436972       -39.1020 
   3   2.0000      -1.385984       -37.7145 
   4   2.0000      -1.286018       -34.9943 
   5   2.0000      -1.278875       -34.7999 
   6   2.0000      -1.189066       -32.3561 
   7   2.0000      -1.184937       -32.2438 
   8   2.0000      -1.118378       -30.4326 
   9   2.0000      -1.112204       -30.2646 
  10   2.0000      -1.046074       -28.4651 
  11   2.0000      -1.032041       -28.0833 
  12   2.0000      -0.966300       -26.2944 
  13   2.0000      -0.961312       -26.1586 
  14   2.0000      -0.925417       -25.1819 
  15   2.0000      -0.904389       -24.6097 
  16   2.0000      -0.882917       -24.0254 
  17   2.0000      -0.844515       -22.9804 
  18   2.0000      -0.830817       -22.6077 
  19   2.0000      -0.817676       -22.2501 
  20   2.0000      -0.771808       -21.0020 
  21   2.0000      -0.770379       -20.9631 
  22   2.0000      -0.747973       -20.3534 
  23   2.0000      -0.728696       -19.8288 
  24   2.0000      -0.704113       -19.1599 
  25   2.0000      -0.687639       -18.7116 
  26   2.0000      -0.681680       -18.5495 
  27   2.0000      -0.665882       -18.1196 
  28   2.0000      -0.642880       -17.4937 
  29   2.0000      -0.629206       -17.1216 
  30   2.0000      -0.625127       -17.0106 
  31   2.0000      -0.612885       -16.6775 
  32   2.0000      -0.604914       -16.4606 
  33   2.0000      -0.586397       -15.9567 
  34   2.0000      -0.581027       -15.8106 
  35   2.0000      -0.578016       -15.7286 
  36   2.0000      -0.568434       -15.4679 
  37   2.0000      -0.567262       -15.4360 
  38   2.0000      -0.562941       -15.3184 
  39   2.0000      -0.544589       -14.8190 
  40   2.0000      -0.536418       -14.5967 
  41   2.0000      -0.528091       -14.3701 
  42   2.0000      -0.521013       -14.1775 
  43   2.0000      -0.516973       -14.0675 
  44   2.0000      -0.509353       -13.8602 
  45   2.0000      -0.500809       -13.6277 
  46   2.0000      -0.497900       -13.5485 
  47   2.0000      -0.494183       -13.4474 
  48   2.0000      -0.489943       -13.3320 
  49   2.0000      -0.488483       -13.2923 
  50   2.0000      -0.480817       -13.0837 
  51   2.0000      -0.471119       -12.8198 
  52   2.0000      -0.468907       -12.7596 
  53   2.0000      -0.461831       -12.5671 
  54   2.0000      -0.456499       -12.4220 
  55   2.0000      -0.443369       -12.0647 
  56   2.0000      -0.438500       -11.9322 
  57   2.0000      -0.433377       -11.7928 
  58   2.0000      -0.357325        -9.7233 
  59   2.0000      -0.356150        -9.6913 
  60   2.0000      -0.306032        -8.3276 
  61   2.0000      -0.305170        -8.3041 
  62   0.0000       0.006029         0.1641 
  63   0.0000       0.007397         0.2013 
  64   0.0000       0.061355         1.6696 
  65   0.0000       0.069638         1.8949 
  66   0.0000       0.070741         1.9250 
  67   0.0000       0.077862         2.1187 
  68   0.0000       0.084150         2.2898 
  69   0.0000       0.089025         2.4225 
  70   0.0000       0.102165         2.7800 
  71   0.0000       0.104181         2.8349 
  72   0.0000       0.106422         2.8959 
  73   0.0000       0.107620         2.9285 
  74   0.0000       0.123849         3.3701 
  75   0.0000       0.125277         3.4090 
  76   0.0000       0.140724         3.8293 
  77   0.0000       0.142798         3.8857 
  78   0.0000       0.157352         4.2818 
  79   0.0000       0.160467         4.3665 
  80   0.0000       0.162489         4.4216 
  81   0.0000       0.167320         4.5530 
  82   0.0000       0.170741         4.6461 
  83   0.0000       0.173183         4.7125 
  84   0.0000       0.204072         5.5531 
  85   0.0000       0.205170         5.5830 
  86   0.0000       0.229505         6.2452 
  87   0.0000       0.232648         6.3307 
  88   0.0000       0.233402         6.3512 
  89   0.0000       0.234766         6.3883 
  90   0.0000       0.235771         6.4157 
  91   0.0000       0.236114         6.4250 
  92   0.0000       0.238216         6.4822 
  93   0.0000       0.239071         6.5055 
  94   0.0000       0.239682         6.5221 
  95   0.0000       0.240388         6.5413 
  96   0.0000       0.241776         6.5790 
  97   0.0000       0.243671         6.6306 
  98   0.0000       0.245218         6.6727 
  99   0.0000       0.247031         6.7220 
 100   0.0000       0.250830         6.8254 
 101   0.0000       0.253616         6.9013 
 102   0.0000       0.258153         7.0247 
 103   0.0000       0.264067         7.1856 
 104   0.0000       0.265731         7.2309 
 105   0.0000       0.266960         7.2643 
 106   0.0000       0.280696         7.6381 
 107   0.0000       0.282362         7.6835 
 108   0.0000       0.307064         8.3556 
 109   0.0000       0.309002         8.4084 
 110   0.0000       0.309812         8.4304 
 111   0.0000       0.311905         8.4874 
 112   0.0000       0.339404         9.2357 
 113   0.0000       0.342543         9.3211 
 114   0.0000       0.352138         9.5822 
 115   0.0000       0.354410         9.6440 
 116   0.0000       0.407697        11.0940 
 117   0.0000       0.411883        11.2079 
 118   0.0000       0.427159        11.6236 
 119   0.0000       0.432214        11.7611 
-------
TIMINGS
-------

Total SCF time: 0 days 0 hours 0 min 0 sec 

Total time                  ....       0.125 sec
Sum of individual times     ....       0.100 sec  ( 80.4%)

Fock matrix formation       ....       0.048 sec  ( 38.7%)
Diagonalization             ....       0.022 sec  ( 17.4%)
Density matrix formation    ....       0.005 sec  (  4.1%)
Population analysis         ....       0.000 sec  (  0.0%)
Initial guess               ....       0.003 sec  (  2.2%)
Orbital Transformation      ....       0.000 sec  (  0.0%)
Orbital Orthonormalization  ....       0.000 sec  (  0.0%)
DIIS solution               ....       0.016 sec  ( 13.0%)
SOSCF solution              ....       0.006 sec  (  5.0%)

-------------------------   --------------------
FINAL SINGLE POINT ENERGY         0.531840394730
-------------------------   --------------------


                            ***************************************
                            *     ORCA property calculations      *
                            ***************************************

                                    ---------------------
                                    Active property flags
                                    ---------------------
   (+) Dipole Moment


------------------------------------------------------------------------------
                       ORCA ELECTRIC PROPERTIES CALCULATION
------------------------------------------------------------------------------

Dipole Moment Calculation                       ... on
Quadrupole Moment Calculation                   ... off
Polarizability Calculation                      ... off
GBWName                                         ... /Users/mattyjones/GoogleDrive/Boise/Code/MorphCT/tests/output_EZ/donor_polymer/chromophores/input_orca/pair/00023-00025.gbw
Electron density file                           ... /Users/mattyjones/GoogleDrive/Boise/Code/MorphCT/tests/output_EZ/donor_polymer/chromophores/input_orca/pair/00023-00025.scfp.tmp

-------------
DIPOLE MOMENT
-------------
                                X             Y             Z
Electronic contribution:    205.22931     110.61418     -77.69608
Nuclear contribution   :   -110.54980     -58.73479      42.01385
                        -----------------------------------------
Total Dipole Moment    :     94.67951      51.87938     -35.68223
                        -----------------------------------------
Magnitude (a.u.)       :    113.70533
Magnitude (Debye)      :    289.01598


Timings for individual modules:

Sum of individual times         ...        0.244 sec (=   0.004 min)
STO integral calculation        ...        0.084 sec (=   0.001 min)  34.5 %
SCF iterations                  ...        0.160 sec (=   0.003 min)  65.5 %
                             ****ORCA TERMINATED NORMALLY****
TOTAL RUN TIME: 0 days 0 hours 0 minutes 0 seconds 562 msec

