
                                 *****************
                                 * O   R   C   A *
                                 *****************

           --- An Ab Initio, DFT and Semiempirical electronic structure package ---

                  #######################################################
                  #                        -***-                        #
                  #  Department of molecular theory and spectroscopy    #
                  #              Directorship: Frank Neese              #
                  # Max Planck Institute for Chemical Energy Conversion #
                  #                  D-45470 Muelheim/Ruhr              #
                  #                       Germany                       #
                  #                                                     #
                  #                  All rights reserved                #
                  #                        -***-                        #
                  #######################################################


                         Program Version 3.0.3 - RELEASE   -


 With contributions from (in alphabetic order):
   Ute Becker             : Parallelization
   Dmytro Bykov           : SCF Hessian
   Dmitry Ganyushin       : Spin-Orbit,Spin-Spin,Magnetic field MRCI
   Andreas Hansen         : Spin unrestricted coupled pair/coupled cluster methods
   Dimitrios Liakos       : Extrapolation schemes; parallel MDCI
   Robert Izsak           : Overlap fitted RIJCOSX, COSX-SCS-MP3
   Christian Kollmar      : KDIIS, OOCD, Brueckner-CCSD(T), CCSD density
   Simone Kossmann        : Meta GGA functionals, TD-DFT gradient, OOMP2, MP2 Hessian
   Taras Petrenko         : DFT Hessian,TD-DFT gradient, ASA and ECA modules, normal mode analysis, Resonance Raman, ABS, FL, XAS/XES, NRVS
   Christoph Reimann      : Effective Core Potentials
   Michael Roemelt        : Restricted open shell CIS
   Christoph Riplinger    : Improved optimizer, TS searches, QM/MM, DLPNO-CCSD
   Barbara Sandhoefer     : DKH picture change effects
   Igor Schapiro          : Molecular dynamics
   Kantharuban Sivalingam : CASSCF convergence, NEVPT2
   Boris Wezisla          : Elementary symmetry handling
   Frank Wennmohs         : Technical directorship


 We gratefully acknowledge several colleagues who have allowed us to
 interface, adapt or use parts of their codes:
   Stefan Grimme, W. Hujo, H. Kruse, T. Risthaus : VdW corrections, initial TS optimization,
                                                   DFT functionals, gCP
   Ed Valeev                                     : LibInt (2-el integral package), F12 methods
   Garnet Chan, S. Sharma, R. Olivares           : DMRG
   Ulf Ekstrom                                   : XCFun DFT Library
   Mihaly Kallay                                 : mrcc  (arbitrary order and MRCC methods)
   Andreas Klamt, Michael Diedenhofen            : otool_cosmo (COSMO solvation model)
   Frank Weinhold                                : gennbo (NPA and NBO analysis)
   Christopher J. Cramer and Donald G. Truhlar   : smd solvation model


 Your calculation uses the libint2 library for the computation of 2-el integrals
 For citations please refer to: http://libint.valeyev.net

 This ORCA versions uses:
   CBLAS   interface :  Fast vector & matrix operations
   LAPACKE interface :  Fast linear algebra routines
   SCALAPACK package :  Parallel linear algebra routines


leaving
================================================================================
                                        WARNINGS
                       Please study these warnings very carefully!
================================================================================
Now building the actual basis set

WARNING: Direct SCF is incompatible with Method<>HF and Method<>DFT
  ===> : conventional SCF is chosen

WARNING: The NDO methods need Guess=HUECKEL or Guess=HCORE or Guess=MOREAD
  ===> : Guess is set to Hueckel

WARNING: The NDO methods need %rel::SOCType==1
  ===> : %rel::SOCType is set to 1

WARNING: The NDO methods cannot have frozencore=1
  ===> : %method FrozenCore=0 end


INFO   : the flag for use of LIBINT has been found!

================================================================================
                                       INPUT FILE
================================================================================
NAME = /Users/mattyjones/GoogleDrive/Boise/Code/MorphCT/tests/output_EZ/donor_polymer/chromophores/input_orca/pair/00001-00003.inp
|  1> # ================================================================
|  2> # Orca input file made by Matty Jones
|  3> # ================================================================
|  4> ! ZINDO/S 
|  5> ! NOPOP
|  6> ! NOMOPRINT
|  7> * xyz 0   1
|  8>  C  -5.90169  1.51913  -5.01689
|  9>  C  -4.75508  2.26667  -4.74423
| 10>  C  -3.81459  1.60443  -3.89500
| 11>  C  -4.22063  0.32752  -3.49506
| 12>  S  -5.70107  0.08844  -4.20327
| 13>  H  -4.57260  3.31639  -5.15886
| 14>  C  -2.40783  2.33622  -3.49344
| 15>  C  -1.63159  2.42871  -1.94757
| 16>  C  -0.05198  3.15175  -1.87113
| 17>  H  0.40446  2.87939  -2.90354
| 18>  H  0.48036  2.49889  -1.06809
| 19>  H  -1.53135  1.36632  -1.53999
| 20>  H  -2.31012  3.05908  -1.26855
| 21>  H  -1.57681  1.86110  -4.16602
| 22>  H  -2.49643  3.45942  -3.79870
| 23>  C  0.42744  4.69189  -1.55936
| 24>  C  1.05240  5.12860  -0.03285
| 25>  C  2.73008  5.01941  0.16499
| 26>  H  3.07986  3.95090  -0.10444
| 27>  H  2.99653  5.24914  1.26801
| 28>  H  3.25141  5.78802  -0.52486
| 29>  H  0.76242  6.22872  0.15463
| 30>  H  0.55899  4.45706  0.75996
| 31>  H  -0.47748  5.39040  -1.74085
| 32>  H  1.25836  4.96607  -2.31986
| 33>  C  -2.07925  -4.83976  -0.64093
| 34>  C  -1.17657  -4.08732  0.11199
| 35>  C  -0.31631  -4.86925  0.94434
| 36>  C  -0.54085  -6.24608  0.84818
| 37>  S  -1.77457  -6.42105  -0.24623
| 38>  H  -0.57989  -3.12036  -0.20500
| 39>  C  0.89125  -4.49531  1.97907
| 40>  C  2.32660  -3.65501  1.58860
| 41>  C  2.57993  -2.00840  1.79609
| 42>  H  3.12259  -1.60366  0.85877
| 43>  H  1.55757  -1.48379  1.89826
| 44>  H  3.16031  -4.19682  2.18361
| 45>  H  2.49968  -3.86539  0.46286
| 46>  H  0.42257  -3.83204  2.81846
| 47>  H  1.27744  -5.46132  2.49615
| 48>  C  3.49673  -1.72704  3.12065
| 49>  C  2.66508  -1.89239  4.57790
| 50>  C  1.77192  -0.53184  4.98698
| 51>  H  2.15788  0.38461  4.39503
| 52>  H  1.87050  -0.33069  6.12198
| 53>  H  0.66024  -0.72130  4.72187
| 54>  H  1.96080  -2.80025  4.50391
| 55>  H  3.44042  -2.07803  5.41157
| 56>  H  4.38779  -2.46541  3.14154
| 57>  H  3.92046  -0.65140  3.07215
| 58>  H  -6.72681  1.80561  -5.61748
| 59>  H  -3.69272  -0.34651  -2.87008
| 60>  H  -2.80630  -4.47683  -1.32158
| 61>  H  -0.02956  -7.01662  1.36631
| 62> *
| 63> 
| 64>                          ****END OF INPUT****
================================================================================

                       ****************************
                       * Single Point Calculation *
                       ****************************

---------------------------------
CARTESIAN COORDINATES (ANGSTROEM)
---------------------------------
  C     -5.901690    1.519130   -5.016890
  C     -4.755080    2.266670   -4.744230
  C     -3.814590    1.604430   -3.895000
  C     -4.220630    0.327520   -3.495060
  S     -5.701070    0.088440   -4.203270
  H     -4.572600    3.316390   -5.158860
  C     -2.407830    2.336220   -3.493440
  C     -1.631590    2.428710   -1.947570
  C     -0.051980    3.151750   -1.871130
  H      0.404460    2.879390   -2.903540
  H      0.480360    2.498890   -1.068090
  H     -1.531350    1.366320   -1.539990
  H     -2.310120    3.059080   -1.268550
  H     -1.576810    1.861100   -4.166020
  H     -2.496430    3.459420   -3.798700
  C      0.427440    4.691890   -1.559360
  C      1.052400    5.128600   -0.032850
  C      2.730080    5.019410    0.164990
  H      3.079860    3.950900   -0.104440
  H      2.996530    5.249140    1.268010
  H      3.251410    5.788020   -0.524860
  H      0.762420    6.228720    0.154630
  H      0.558990    4.457060    0.759960
  H     -0.477480    5.390400   -1.740850
  H      1.258360    4.966070   -2.319860
  C     -2.079250   -4.839760   -0.640930
  C     -1.176570   -4.087320    0.111990
  C     -0.316310   -4.869250    0.944340
  C     -0.540850   -6.246080    0.848180
  S     -1.774570   -6.421050   -0.246230
  H     -0.579890   -3.120360   -0.205000
  C      0.891250   -4.495310    1.979070
  C      2.326600   -3.655010    1.588600
  C      2.579930   -2.008400    1.796090
  H      3.122590   -1.603660    0.858770
  H      1.557570   -1.483790    1.898260
  H      3.160310   -4.196820    2.183610
  H      2.499680   -3.865390    0.462860
  H      0.422570   -3.832040    2.818460
  H      1.277440   -5.461320    2.496150
  C      3.496730   -1.727040    3.120650
  C      2.665080   -1.892390    4.577900
  C      1.771920   -0.531840    4.986980
  H      2.157880    0.384610    4.395030
  H      1.870500   -0.330690    6.121980
  H      0.660240   -0.721300    4.721870
  H      1.960800   -2.800250    4.503910
  H      3.440420   -2.078030    5.411570
  H      4.387790   -2.465410    3.141540
  H      3.920460   -0.651400    3.072150
  H     -6.726810    1.805610   -5.617480
  H     -3.692720   -0.346510   -2.870080
  H     -2.806300   -4.476830   -1.321580
  H     -0.029560   -7.016620    1.366310

----------------------------
CARTESIAN COORDINATES (A.U.)
----------------------------
  NO LB      ZA    FRAG    MASS        X           Y           Z
   0 C     4.0000    0    12.011        -11.152577827301712          2.870739661823791         -9.480548144008189
   1 C     4.0000    0    12.011         -8.985798944886266          4.283385535975284         -8.965295416333220
   2 C     4.0000    0    12.011         -7.208530413194667          3.031933301047274         -7.360483291623275
   3 C     4.0000    0    12.011         -7.975834812612052          0.618923103381888         -6.604706221622810
   4 S     6.0000    0    32.060        -10.773460970314430          0.167127379283996         -7.943029166927179
   5 H     1.0000    0     1.008         -8.640961719968317          6.267068853275100         -9.748832563240988
   6 C     4.0000    0    12.011         -4.550139277039608          4.414815988589506         -6.601644865285857
   7 C     4.0000    0    12.011         -3.083258262844575          4.589596758715883         -3.680373926641012
   8 C     4.0000    0    12.011         -0.098227964441227          5.955944342586305         -3.535923260964072
   9 H     1.0000    0     1.008          0.764318632125789          5.441258532751513         -5.486895418885711
  10 H     1.0000    0     1.008          0.907748845690412          4.722217738794476         -2.018397586379950
  11 H     1.0000    0     1.008         -2.893832115180309          2.581970611299285         -2.910159348977388
  12 H     1.0000    0     1.008         -4.365494136494162          5.780823421755822         -2.397212087185804
  13 H     1.0000    0     1.008         -2.979739065228369          3.516969307840841         -7.872636868438613
  14 H     1.0000    0     1.008         -4.717569012505031          6.537356382209857         -7.178502664926659
  15 C     4.0000    0    12.011          0.807744538683300          8.866387150483781         -2.946763344191443
  16 C     4.0000    0    12.011          1.988747783338725          9.691649450428530         -0.062077503499313
  17 C     4.0000    0    12.011          5.159103523695731          9.485310253865670          0.311785914835667
  18 H     1.0000    0     1.008          5.820091930818706          7.466118982509473         -0.197362997426736
  19 H     1.0000    0     1.008          5.662621052079048          9.919437038611399          2.396191635073487
  20 H     1.0000    0     1.008          6.144274449092896         10.937772657658885         -0.991841658649908
  21 H     1.0000    0     1.008          1.440764999024241         11.770574964877978          0.292208352088243
  22 H     1.0000    0     1.008          1.056338011600640          8.422622762455054          1.436116272734794
  23 H     1.0000    0     1.008         -0.902306434424719         10.186379752289115         -3.289729740236811
  24 H     1.0000    0     1.008          2.377955777881146          9.384512261882310         -4.383900069038554
  25 C     4.0000    0    12.011         -3.929213063955763         -9.145820953906718         -1.211182171014148
  26 C     4.0000    0    12.011         -2.223395077387727         -7.723915421699011          0.211630429737841
  27 C     4.0000    0    12.011         -0.597739273420631         -9.201548977596055          1.784543977307195
  28 C     4.0000    0    12.011         -1.022058379531309        -11.803380610562852          1.602827912269327
  29 S     6.0000    0    32.060         -3.353451305472635        -12.134025992215053         -0.465307265955430
  30 H     1.0000    0     1.008         -1.095833287799595         -5.896625839242517         -0.387393857453857
  31 C     4.0000    0    12.011          1.684218416857316         -8.494904787077541          3.739900299859532
  32 C     4.0000    0    12.011          4.396636823181185         -6.906967916743514          3.002018936347300
  33 C     4.0000    0    12.011          4.875361144687455         -3.795325967367442          3.394118211874621
  34 H     1.0000    0     1.008          5.900839928521162         -3.030478211924155          1.622840112027553
  35 H     1.0000    0     1.008          2.943380734411724         -2.803956740251014          3.587191530977355
  36 H     1.0000    0     1.008          5.972120398292671         -7.930840433363387          4.126424883291784
  37 H     1.0000    0     1.008          4.723710622440275         -7.304528500797868          0.874678638346790
  38 H     1.0000    0     1.008          0.798541572411103         -7.241506134231593          5.326117519411691
  39 H     1.0000    0     1.008          2.414011752516363        -10.320399129706809          4.717039889187532
  40 C     4.0000    0    12.011          6.607862064266458         -3.263632622327358          5.897173859821354
  41 C     4.0000    0    12.011          5.036271324990850         -3.576098838571237          8.650977268478098
  42 C     4.0000    0    12.011          3.348443531217744         -1.005031947064678          9.424026435342604
  43 H     1.0000    0     1.008          4.077802229865990          0.726807568367453          8.305403050367920
  44 H     1.0000    0     1.008          3.534732733499701         -0.624913535226419         11.568865597343224
  45 H     1.0000    0     1.008          1.247672782660167         -1.363059460397399          8.923041139978741
  46 H     1.0000    0     1.008          3.705375003392791         -5.291705606512985          8.511156431829265
  47 H     1.0000    0     1.008          6.501451585665353         -3.926907598072379         10.226385254544228
  48 H     1.0000    0     1.008          8.291721433158328         -4.658949707830793          5.936650238758969
  49 H     1.0000    0     1.008          7.408595718992910         -1.230967603636303          5.805522142326174
  50 H     1.0000    0     1.008        -12.711828654922815          3.412108404669551        -10.615498762779952
  51 H     1.0000    0     1.008         -6.978229489253684         -0.654809002665053         -5.423665182444706
  52 H     1.0000    0     1.008         -5.303138449623209         -8.459982648122676         -2.497424264067648
  53 H     1.0000    0     1.008         -0.055860304518712        -13.259490185794531          2.581951714037945

--------------------------------
INTERNAL COORDINATES (ANGSTROEM)
--------------------------------
 C      0   0   0   0.000000     0.000     0.000
 C      1   0   0   1.395663     0.000     0.000
 C      2   1   0   1.429781   114.102     0.000
 C      3   2   1   1.398327   113.693     0.000
 S      1   2   3   1.658041   105.480     0.000
 H      2   1   3   1.143297   123.508   179.928
 C      3   2   1   1.635769   120.285   179.222
 C      7   3   2   1.732287   128.926   135.995
 C      8   7   3   1.738907   117.936   174.105
 H      9   8   7   1.161201   102.736   328.287
 H      9   8   7   1.163824   102.274   216.810
 H      8   7   3   1.142297   107.943    52.886
 H      8   7   3   1.148406   106.989   293.864
 H      7   3   2   1.169913   106.742   258.235
 H      7   3   2   1.167310   107.517    12.897
 C      9   8   7   1.642886   131.546    93.421
 C     16   9   8   1.706319   121.103   102.239
 C     17  16   9   1.692830   116.810    91.344
 H     18  17  16   1.156137   109.403   305.100
 H     18  17  16   1.157767   109.064   185.207
 H     18  17  16   1.156909   109.515    65.487
 H     17  16   9   1.153040   107.310   211.339
 H     17  16   9   1.150203   108.065   329.571
 H     16   9   8   1.157469   107.929   340.281
 H     16   9   8   1.159294   107.841   223.429
 C      4   3   2   6.279518   141.481   169.658
 C     26   4   3   1.395667    91.267    29.269
 C     27  26   4   1.429779   114.102   183.633
 C     28  27  26   1.398330   113.693     0.000
 S     26   4   3   1.658040   162.872   221.237
 H     27  26   4   1.179628   128.617   324.758
 C     28  27  26   1.633615   133.496   179.248
 C     32  28  27   1.708450   126.076   300.986
 C     33  32  28   1.678855   125.516    96.305
 H     34  33  32   1.156228   108.298   222.543
 H     34  33  32   1.153635   108.859   341.138
 H     33  32  28   1.158735   104.901   219.963
 H     33  32  28   1.158234   104.972   333.518
 H     32  28  27   1.167974   106.773    61.421
 H     32  28  27   1.161761   109.713   176.571
 C     34  33  32   1.635281   110.699   102.530
 C     41  34  33   1.685989   113.996   284.055
 C     42  41  34   1.678147   113.186   278.323
 H     43  42  41   1.157260   109.867   341.138
 H     43  42  41   1.156894   109.558   220.660
 H     43  42  41   1.158452   108.806   100.909
 H     42  41  34   1.151388   108.875    39.999
 H     42  41  34   1.153525   107.993   158.586
 H     41  34  33   1.157417   109.662    44.693
 H     41  34  33   1.157109   109.347   163.147
 H      1   2   3   1.060001   127.261   180.000
 H      4   3   2   1.060003   127.206   180.001
 H     26   4   3   1.060002    36.148   204.365
 H     29  28  27   1.060004   127.206   180.000

---------------------------
INTERNAL COORDINATES (A.U.)
---------------------------
 C      0   0   0   0.000000     0.000     0.000
 C      1   0   0   2.637420     0.000     0.000
 C      2   1   0   2.701895   114.102     0.000
 C      3   2   1   2.642456   113.693     0.000
 S      1   2   3   3.133243   105.480     0.000
 H      2   1   3   2.160519   123.508   179.928
 C      3   2   1   3.091156   120.285   179.222
 C      7   3   2   3.273547   128.926   135.995
 C      8   7   3   3.286058   117.936   174.105
 H      9   8   7   2.194352   102.736   328.287
 H      9   8   7   2.199308   102.274   216.810
 H      8   7   3   2.158628   107.943    52.886
 H      8   7   3   2.170174   106.989   293.864
 H      7   3   2   2.210816   106.742   258.235
 H      7   3   2   2.205896   107.517    12.897
 C      9   8   7   3.104605   131.546    93.421
 C     16   9   8   3.224475   121.103   102.239
 C     17  16   9   3.198985   116.810    91.344
 H     18  17  16   2.184782   109.403   305.100
 H     18  17  16   2.187863   109.064   185.207
 H     18  17  16   2.186242   109.515    65.487
 H     17  16   9   2.178930   107.310   211.339
 H     17  16   9   2.173569   108.065   329.571
 H     16   9   8   2.187300   107.929   340.281
 H     16   9   8   2.190748   107.841   223.429
 C      4   3   2  11.866570   141.481   169.658
 C     26   4   3   2.637428    91.267    29.269
 C     27  26   4   2.701891   114.102   183.633
 C     28  27  26   2.642460   113.693     0.000
 S     26   4   3   3.133241   162.872   221.237
 H     27  26   4   2.229173   128.617   324.758
 C     28  27  26   3.087085   133.496   179.248
 C     32  28  27   3.228502   126.076   300.986
 C     33  32  28   3.172575   125.516    96.305
 H     34  33  32   2.184954   108.298   222.543
 H     34  33  32   2.180055   108.859   341.138
 H     33  32  28   2.189692   104.901   219.963
 H     33  32  28   2.188746   104.972   333.518
 H     32  28  27   2.207151   106.773    61.421
 H     32  28  27   2.195411   109.713   176.571
 C     34  33  32   3.090234   110.699   102.530
 C     41  34  33   3.186058   113.996   284.055
 C     42  41  34   3.171238   113.186   278.323
 H     43  42  41   2.186904   109.867   341.138
 H     43  42  41   2.186213   109.558   220.660
 H     43  42  41   2.189157   108.806   100.909
 H     42  41  34   2.175808   108.875    39.999
 H     42  41  34   2.179846   107.993   158.586
 H     41  34  33   2.187202   109.662    44.693
 H     41  34  33   2.186619   109.347   163.147
 H      1   2   3   2.003112   127.261   180.000
 H      4   3   2   2.003115   127.206   180.001
 H     26   4   3   2.003114    36.148   204.365
 H     29  28  27   2.003117   127.206   180.000

----------------------------
SLATER BASIS SET DIM= 120
----------------------------
  0 C     2 shells
 l=0 nsto= 1
    2       1.625000000000        1.000000000000
 l=1 nsto= 1
    2       1.625000000000        1.000000000000
  1 C     2 shells
 l=0 nsto= 1
    2       1.625000000000        1.000000000000
 l=1 nsto= 1
    2       1.625000000000        1.000000000000
  2 C     2 shells
 l=0 nsto= 1
    2       1.625000000000        1.000000000000
 l=1 nsto= 1
    2       1.625000000000        1.000000000000
  3 C     2 shells
 l=0 nsto= 1
    2       1.625000000000        1.000000000000
 l=1 nsto= 1
    2       1.625000000000        1.000000000000
  4 S     2 shells
 l=0 nsto= 1
    3       1.925000000000        1.000000000000
 l=1 nsto= 1
    3       1.925000000000        1.000000000000
  5 H     1 shells
 l=0 nsto= 1
    1       1.200000000000        1.000000000000
  6 C     2 shells
 l=0 nsto= 1
    2       1.625000000000        1.000000000000
 l=1 nsto= 1
    2       1.625000000000        1.000000000000
  7 C     2 shells
 l=0 nsto= 1
    2       1.625000000000        1.000000000000
 l=1 nsto= 1
    2       1.625000000000        1.000000000000
  8 C     2 shells
 l=0 nsto= 1
    2       1.625000000000        1.000000000000
 l=1 nsto= 1
    2       1.625000000000        1.000000000000
  9 H     1 shells
 l=0 nsto= 1
    1       1.200000000000        1.000000000000
 10 H     1 shells
 l=0 nsto= 1
    1       1.200000000000        1.000000000000
 11 H     1 shells
 l=0 nsto= 1
    1       1.200000000000        1.000000000000
 12 H     1 shells
 l=0 nsto= 1
    1       1.200000000000        1.000000000000
 13 H     1 shells
 l=0 nsto= 1
    1       1.200000000000        1.000000000000
 14 H     1 shells
 l=0 nsto= 1
    1       1.200000000000        1.000000000000
 15 C     2 shells
 l=0 nsto= 1
    2       1.625000000000        1.000000000000
 l=1 nsto= 1
    2       1.625000000000        1.000000000000
 16 C     2 shells
 l=0 nsto= 1
    2       1.625000000000        1.000000000000
 l=1 nsto= 1
    2       1.625000000000        1.000000000000
 17 C     2 shells
 l=0 nsto= 1
    2       1.625000000000        1.000000000000
 l=1 nsto= 1
    2       1.625000000000        1.000000000000
 18 H     1 shells
 l=0 nsto= 1
    1       1.200000000000        1.000000000000
 19 H     1 shells
 l=0 nsto= 1
    1       1.200000000000        1.000000000000
 20 H     1 shells
 l=0 nsto= 1
    1       1.200000000000        1.000000000000
 21 H     1 shells
 l=0 nsto= 1
    1       1.200000000000        1.000000000000
 22 H     1 shells
 l=0 nsto= 1
    1       1.200000000000        1.000000000000
 23 H     1 shells
 l=0 nsto= 1
    1       1.200000000000        1.000000000000
 24 H     1 shells
 l=0 nsto= 1
    1       1.200000000000        1.000000000000
 25 C     2 shells
 l=0 nsto= 1
    2       1.625000000000        1.000000000000
 l=1 nsto= 1
    2       1.625000000000        1.000000000000
 26 C     2 shells
 l=0 nsto= 1
    2       1.625000000000        1.000000000000
 l=1 nsto= 1
    2       1.625000000000        1.000000000000
 27 C     2 shells
 l=0 nsto= 1
    2       1.625000000000        1.000000000000
 l=1 nsto= 1
    2       1.625000000000        1.000000000000
 28 C     2 shells
 l=0 nsto= 1
    2       1.625000000000        1.000000000000
 l=1 nsto= 1
    2       1.625000000000        1.000000000000
 29 S     2 shells
 l=0 nsto= 1
    3       1.925000000000        1.000000000000
 l=1 nsto= 1
    3       1.925000000000        1.000000000000
 30 H     1 shells
 l=0 nsto= 1
    1       1.200000000000        1.000000000000
 31 C     2 shells
 l=0 nsto= 1
    2       1.625000000000        1.000000000000
 l=1 nsto= 1
    2       1.625000000000        1.000000000000
 32 C     2 shells
 l=0 nsto= 1
    2       1.625000000000        1.000000000000
 l=1 nsto= 1
    2       1.625000000000        1.000000000000
 33 C     2 shells
 l=0 nsto= 1
    2       1.625000000000        1.000000000000
 l=1 nsto= 1
    2       1.625000000000        1.000000000000
 34 H     1 shells
 l=0 nsto= 1
    1       1.200000000000        1.000000000000
 35 H     1 shells
 l=0 nsto= 1
    1       1.200000000000        1.000000000000
 36 H     1 shells
 l=0 nsto= 1
    1       1.200000000000        1.000000000000
 37 H     1 shells
 l=0 nsto= 1
    1       1.200000000000        1.000000000000
 38 H     1 shells
 l=0 nsto= 1
    1       1.200000000000        1.000000000000
 39 H     1 shells
 l=0 nsto= 1
    1       1.200000000000        1.000000000000
 40 C     2 shells
 l=0 nsto= 1
    2       1.625000000000        1.000000000000
 l=1 nsto= 1
    2       1.625000000000        1.000000000000
 41 C     2 shells
 l=0 nsto= 1
    2       1.625000000000        1.000000000000
 l=1 nsto= 1
    2       1.625000000000        1.000000000000
 42 C     2 shells
 l=0 nsto= 1
    2       1.625000000000        1.000000000000
 l=1 nsto= 1
    2       1.625000000000        1.000000000000
 43 H     1 shells
 l=0 nsto= 1
    1       1.200000000000        1.000000000000
 44 H     1 shells
 l=0 nsto= 1
    1       1.200000000000        1.000000000000
 45 H     1 shells
 l=0 nsto= 1
    1       1.200000000000        1.000000000000
 46 H     1 shells
 l=0 nsto= 1
    1       1.200000000000        1.000000000000
 47 H     1 shells
 l=0 nsto= 1
    1       1.200000000000        1.000000000000
 48 H     1 shells
 l=0 nsto= 1
    1       1.200000000000        1.000000000000
 49 H     1 shells
 l=0 nsto= 1
    1       1.200000000000        1.000000000000
 50 H     1 shells
 l=0 nsto= 1
    1       1.200000000000        1.000000000000
 51 H     1 shells
 l=0 nsto= 1
    1       1.200000000000        1.000000000000
 52 H     1 shells
 l=0 nsto= 1
    1       1.200000000000        1.000000000000
 53 H     1 shells
 l=0 nsto= 1
    1       1.200000000000        1.000000000000
------------------------------------------------------------------------------
                           ORCA NDO INTEGRAL CALCULATION
------------------------------------------------------------------------------

--------------
NDO PARAMETERS
--------------

Gamma integral treatment              ... Mataga-Nishimoto
Nuclear repulsuion treatment          ... Direct (ZA*ZB/RAB)
Interaction factors:
s-s (sigma) =    1.0000
s-p (sigma) =    1.0000
s-d (sigma) =    1.0000
p-p (sigma) =    1.2670  p-p(pi) =    0.5850
p-d (sigma) =    1.0000  p-d(pi) =    1.0000
d-d (sigma) =    1.0000  d-d(pi) =    1.0000 d-d (delta) =    1.0000

fGamma parameter for Mataga-Nishimoto gamma integrals:    1.2000

--------------------------
Parameters for Element H :
--------------------------
 One-electron parameters (in eV)
  U(s)  =   -13.060000 Beta(s) =    12.000000 Neff(s) =     1.000000
 One-center electron repulsion parameters (in eV)
  G(s,s)=    12.850000
--------------------------
Parameters for Element C :
--------------------------
 One-electron parameters (in eV)
  U(s)  =   -50.870766 Beta(s) =    17.000000 Neff(s) =     2.000000
  U(p)  =   -41.599980 Beta(p) =    17.000000 Neff(p) =     2.000000 
 One-center electron repulsion parameters (in eV)
  G(s,s)=    11.110000
  G(s,p)=    11.110000 G(p,p)  =    11.110000
 Slater-Condon parameters (in eV)
 F2(p,p)=     4.5098 G1(s,p)=    6.8977
--------------------------
Parameters for Element S :
--------------------------
 One-electron parameters (in eV)
  U(s)  =   -69.509597 Beta(s) =    15.000000 Neff(s) =     2.000000
  U(p)  =   -60.725746 Beta(p) =    15.000000 Neff(p) =     4.000000 
 One-center electron repulsion parameters (in eV)
  G(s,s)=    10.090000
  G(s,p)=    10.090000 G(p,p)  =    10.090000
 Slater-Condon parameters (in eV)
 F2(p,p)=     4.5377 G1(s,p)=    3.0756

 Number of atoms                    ....   54
 Number of basis functions          ....  120

 Overlap integrals                  .... done
 One electron matrix                .... done
 Nuclear repulsion                  .... done
 Integral list                      .... done
 Electron-electron repulsion        .... done
-------------------------------------------------------------------------------
                                 ORCA SCF
-------------------------------------------------------------------------------

------------
SCF SETTINGS
------------
Hamiltonian:
 ZDO-Hamiltonian        Method          .... INDO


General Settings:
 Integral files         IntName         .... /Users/mattyjones/GoogleDrive/Boise/Code/MorphCT/tests/output_EZ/donor_polymer/chromophores/input_orca/pair/00001-00003
 Hartree-Fock type      HFTyp           .... RHF
 Total Charge           Charge          ....    0
 Multiplicity           Mult            ....    1
 Number of Electrons    NEL             ....  124
 Basis Dimension        Dim             ....  120
 Nuclear Repulsion      ENuc            ....    801.5889024426 Eh

Convergence Acceleration:
 DIIS                   CNVDIIS         .... on
   Start iteration      DIISMaxIt       ....    12
   Startup error        DIISStart       ....  0.200000
   # of expansion vecs  DIISMaxEq       ....     5
   Bias factor          DIISBfac        ....   1.050
   Max. coefficient     DIISMaxC        ....  10.000
 Newton-Raphson         CNVNR           .... off
 SOSCF                  CNVSOSCF        .... on
   Start iteration      SOSCFMaxIt      ....   150
   Startup grad/error   SOSCFStart      ....  0.003300
 Level Shifting         CNVShift        .... on
   Level shift para.    LevelShift      ....    0.2500
   Turn off err/grad.   ShiftErr        ....    0.0010
 Zerner damping         CNVZerner       .... off
 Static damping         CNVDamp         .... on
   Fraction old density DampFac         ....    0.7000
   Max. Damping (<1)    DampMax         ....    0.9800
   Min. Damping (>=0)   DampMin         ....    0.0000
   Turn off err/grad.   DampErr         ....    0.1000
 Fernandez-Rico         CNVRico         .... off

SCF Procedure:
 Maximum # iterations   MaxIter         ....   125
 SCF integral mode      SCFMode         .... Conventional
 Integral Buffer length BufferLength    .... 1048576
 Integral index format  IndFormat       ....     0
 Integral value format  ValFormat       ....     0
 Integral Storage       Thresh          ....  1.000e-08 Eh

Convergence Tolerance:
 Convergence Check Mode ConvCheckMode   .... Total+1el-Energy
 Energy Change          TolE            ....  1.000e-06 Eh
 1-El. energy change                    ....  1.000e-03 Eh
 Orbital Gradient       TolG            ....  5.000e-05
 Orbital Rotation angle TolX            ....  5.000e-05
 DIIS Error             TolErr          ....  1.000e-06


Diagonalization of the overlap matrix:
Smallest eigenvalue                        ... 1.692e-01
Time for diagonalization                   ...    0.003 sec
Threshold for overlap eigenvalues          ... 1.000e-08
Number of eigenvalues below threshold      ... 0
Time for construction of square roots      ...    0.001 sec
Total time needed                          ...    0.004 sec

-------------------------------
INITIAL GUESS: EXTENDED HUECKEL
-------------------------------
EHT matrix was read from disk
EHT matrix was diagonalized
Initial density was built
                      ------------------
                      INITIAL GUESS DONE
                      ------------------

 InCore treatment chosen:
   Memory dedicated               ...    1024 MB
   Memory needed                  ...      0 MB
   Number of tiny    integrals    ...       0
   Number of small   integrals    ...       0
   Number of regular integrals    ...    7392

--------------
SCF ITERATIONS
--------------
ITER       Energy         Delta-E        Max-DP      RMS-DP      [F,P]     Damp
  0    -21.6092786218   0.000000000000 0.04364234  0.00147505  0.1079313 0.7000
  1    -21.6523688900  -0.043090268155 0.04081658  0.00139009  0.0762196 0.7000
                               ***Turning on DIIS***
  2    -21.6841830477  -0.031814157775 0.10222719  0.00356336  0.0502573 0.0000
  3    -21.7634883921  -0.079305344374 0.01981371  0.00073339  0.0223021 0.0000
  4    -21.7518560639   0.011632328214 0.01162455  0.00050765  0.0069573 0.0000
  5    -21.7699253758  -0.018069311850 0.00780782  0.00034579  0.0040292 0.0000
  6    -21.7714664514  -0.001541075622 0.00571259  0.00024749  0.0021606 0.0000
                      *** Initiating the SOSCF procedure ***
                           *** Shutting down DIIS ***
                      *** Re-Reading the Fockian *** 
                      *** Removing any level shift *** 
ITER      Energy       Delta-E        Grad      Rot      Max-DP    RMS-DP
  7    -21.76799931   0.0034671427  0.003129  0.003129  0.003431  0.000142
  8    -21.76553009   0.0024692186  0.000900  0.002538  0.001654  0.000067
  9    -21.76554667  -0.0000165818  0.000397  0.002534  0.001884  0.000073
 10    -21.76555302  -0.0000063502  0.000039  0.000069  0.000119  0.000004
                 **** Energy Check signals convergence ****
              ***Rediagonalizing the Fockian in SOSCF/NRSCF***

               *****************************************************
               *                     SUCCESS                       *
               *           SCF CONVERGED AFTER  11 CYCLES          *
               *****************************************************


----------------
TOTAL SCF ENERGY
----------------

Total Energy       :          -21.76555308 Eh            -592.27081 eV

Components:
Nuclear Repulsion  :          801.58890244 Eh           21812.34295 eV
Electronic Energy  :         -823.35445553 Eh          -22404.61376 eV

One Electron Energy:        -1556.38887798 Eh          -42351.49448 eV
Two Electron Energy:          733.03442245 Eh           19946.88071 eV


---------------
SCF CONVERGENCE
---------------

  Last Energy change         ...   -6.0627e-08  Tolerance :   1.0000e-06
  Last MAX-Density change    ...    7.2325e-05  Tolerance :   1.0000e-05
  Last RMS-Density change    ...    1.6034e-06  Tolerance :   1.0000e-06
  Last Orbital Gradient      ...    1.3672e-05  Tolerance :   5.0000e-05
  Last Orbital Rotation      ...    3.3847e-05  Tolerance :   5.0000e-05

             **** THE GBW FILE WAS UPDATED (/Users/mattyjones/GoogleDrive/Boise/Code/MorphCT/tests/output_EZ/donor_polymer/chromophores/input_orca/pair/00001-00003.gbw) ****
             **** DENSITY FILE WAS UPDATED (/Users/mattyjones/GoogleDrive/Boise/Code/MorphCT/tests/output_EZ/donor_polymer/chromophores/input_orca/pair/00001-00003.scfp.tmp) ****
             **** ENERGY FILE WAS UPDATED (/Users/mattyjones/GoogleDrive/Boise/Code/MorphCT/tests/output_EZ/donor_polymer/chromophores/input_orca/pair/00001-00003.en.tmp) ****
----------------
ORBITAL ENERGIES
----------------

  NO   OCC          E(Eh)            E(eV) 
   0   2.0000      -1.558712       -42.4147 
   1   2.0000      -1.555157       -42.3180 
   2   2.0000      -1.413259       -38.4567 
   3   2.0000      -1.375343       -37.4250 
   4   2.0000      -1.283511       -34.9261 
   5   2.0000      -1.279523       -34.8176 
   6   2.0000      -1.191559       -32.4240 
   7   2.0000      -1.173862       -31.9424 
   8   2.0000      -1.110750       -30.2250 
   9   2.0000      -1.098883       -29.9021 
  10   2.0000      -1.063401       -28.9366 
  11   2.0000      -1.029575       -28.0162 
  12   2.0000      -0.983991       -26.7757 
  13   2.0000      -0.960045       -26.1242 
  14   2.0000      -0.912545       -24.8316 
  15   2.0000      -0.904144       -24.6030 
  16   2.0000      -0.848066       -23.0770 
  17   2.0000      -0.840875       -22.8814 
  18   2.0000      -0.833295       -22.6751 
  19   2.0000      -0.821579       -22.3563 
  20   2.0000      -0.787571       -21.4309 
  21   2.0000      -0.774780       -21.0828 
  22   2.0000      -0.730003       -19.8644 
  23   2.0000      -0.722855       -19.6699 
  24   2.0000      -0.698535       -19.0081 
  25   2.0000      -0.683066       -18.5872 
  26   2.0000      -0.680814       -18.5259 
  27   2.0000      -0.676319       -18.4036 
  28   2.0000      -0.639066       -17.3899 
  29   2.0000      -0.638683       -17.3794 
  30   2.0000      -0.623647       -16.9703 
  31   2.0000      -0.609098       -16.5744 
  32   2.0000      -0.590496       -16.0682 
  33   2.0000      -0.587128       -15.9766 
  34   2.0000      -0.586448       -15.9581 
  35   2.0000      -0.577389       -15.7115 
  36   2.0000      -0.566410       -15.4128 
  37   2.0000      -0.559112       -15.2142 
  38   2.0000      -0.557298       -15.1649 
  39   2.0000      -0.548219       -14.9178 
  40   2.0000      -0.532851       -14.4996 
  41   2.0000      -0.530379       -14.4323 
  42   2.0000      -0.522646       -14.2219 
  43   2.0000      -0.521727       -14.1969 
  44   2.0000      -0.516365       -14.0510 
  45   2.0000      -0.500314       -13.6142 
  46   2.0000      -0.498247       -13.5580 
  47   2.0000      -0.497165       -13.5286 
  48   2.0000      -0.490454       -13.3459 
  49   2.0000      -0.487817       -13.2742 
  50   2.0000      -0.485491       -13.2109 
  51   2.0000      -0.474099       -12.9009 
  52   2.0000      -0.463203       -12.6044 
  53   2.0000      -0.459815       -12.5122 
  54   2.0000      -0.458104       -12.4656 
  55   2.0000      -0.451888       -12.2965 
  56   2.0000      -0.437141       -11.8952 
  57   2.0000      -0.434626       -11.8268 
  58   2.0000      -0.359140        -9.7727 
  59   2.0000      -0.352226        -9.5846 
  60   2.0000      -0.306559        -8.3419 
  61   2.0000      -0.304796        -8.2939 
  62   0.0000       0.002473         0.0673 
  63   0.0000       0.005763         0.1568 
  64   0.0000       0.053687         1.4609 
  65   0.0000       0.055680         1.5151 
  66   0.0000       0.072468         1.9720 
  67   0.0000       0.075572         2.0564 
  68   0.0000       0.080580         2.1927 
  69   0.0000       0.091713         2.4956 
  70   0.0000       0.100610         2.7377 
  71   0.0000       0.102683         2.7942 
  72   0.0000       0.105433         2.8690 
  73   0.0000       0.108792         2.9604 
  74   0.0000       0.121790         3.3141 
  75   0.0000       0.126684         3.4473 
  76   0.0000       0.141397         3.8476 
  77   0.0000       0.142691         3.8828 
  78   0.0000       0.158014         4.2998 
  79   0.0000       0.158905         4.3240 
  80   0.0000       0.164631         4.4798 
  81   0.0000       0.164668         4.4808 
  82   0.0000       0.170466         4.6386 
  83   0.0000       0.174457         4.7472 
  84   0.0000       0.199151         5.4192 
  85   0.0000       0.202394         5.5074 
  86   0.0000       0.231571         6.3014 
  87   0.0000       0.231986         6.3127 
  88   0.0000       0.232845         6.3360 
  89   0.0000       0.234475         6.3804 
  90   0.0000       0.235608         6.4112 
  91   0.0000       0.236205         6.4275 
  92   0.0000       0.238272         6.4837 
  93   0.0000       0.238711         6.4957 
  94   0.0000       0.239368         6.5135 
  95   0.0000       0.240208         6.5364 
  96   0.0000       0.241166         6.5624 
  97   0.0000       0.243035         6.6133 
  98   0.0000       0.244189         6.6447 
  99   0.0000       0.244553         6.6546 
 100   0.0000       0.245890         6.6910 
 101   0.0000       0.247068         6.7231 
 102   0.0000       0.253502         6.8981 
 103   0.0000       0.262400         7.1403 
 104   0.0000       0.263731         7.1765 
 105   0.0000       0.265365         7.2209 
 106   0.0000       0.267121         7.2687 
 107   0.0000       0.288287         7.8447 
 108   0.0000       0.296942         8.0802 
 109   0.0000       0.307270         8.3612 
 110   0.0000       0.308530         8.3955 
 111   0.0000       0.308963         8.4073 
 112   0.0000       0.334642         9.1061 
 113   0.0000       0.342084         9.3086 
 114   0.0000       0.354033         9.6337 
 115   0.0000       0.358206         9.7473 
 116   0.0000       0.400474        10.8975 
 117   0.0000       0.411549        11.1988 
 118   0.0000       0.428011        11.6468 
 119   0.0000       0.437966        11.9177 
-------
TIMINGS
-------

Total SCF time: 0 days 0 hours 0 min 0 sec 

Total time                  ....       0.142 sec
Sum of individual times     ....       0.108 sec  ( 75.7%)

Fock matrix formation       ....       0.050 sec  ( 35.0%)
Diagonalization             ....       0.023 sec  ( 16.5%)
Density matrix formation    ....       0.005 sec  (  3.8%)
Population analysis         ....       0.000 sec  (  0.0%)
Initial guess               ....       0.003 sec  (  1.9%)
Orbital Transformation      ....       0.000 sec  (  0.0%)
Orbital Orthonormalization  ....       0.000 sec  (  0.0%)
DIIS solution               ....       0.020 sec  ( 14.0%)
SOSCF solution              ....       0.006 sec  (  4.4%)

-------------------------   --------------------
FINAL SINGLE POINT ENERGY       -21.765553082708
-------------------------   --------------------


                            ***************************************
                            *     ORCA property calculations      *
                            ***************************************

                                    ---------------------
                                    Active property flags
                                    ---------------------
   (+) Dipole Moment


------------------------------------------------------------------------------
                       ORCA ELECTRIC PROPERTIES CALCULATION
------------------------------------------------------------------------------

Dipole Moment Calculation                       ... on
Quadrupole Moment Calculation                   ... off
Polarizability Calculation                      ... off
GBWName                                         ... /Users/mattyjones/GoogleDrive/Boise/Code/MorphCT/tests/output_EZ/donor_polymer/chromophores/input_orca/pair/00001-00003.gbw
Electron density file                           ... /Users/mattyjones/GoogleDrive/Boise/Code/MorphCT/tests/output_EZ/donor_polymer/chromophores/input_orca/pair/00001-00003.scfp.tmp

-------------
DIPOLE MOMENT
-------------
                                X             Y             Z
Electronic contribution:   -201.89055    -165.37512    -124.36665
Nuclear contribution   :    108.79521      88.76094      67.23870
                        -----------------------------------------
Total Dipole Moment    :    -93.09534     -76.61418     -57.12795
                        -----------------------------------------
Magnitude (a.u.)       :    133.41693
Magnitude (Debye)      :    339.11890


Timings for individual modules:

Sum of individual times         ...        0.260 sec (=   0.004 min)
STO integral calculation        ...        0.071 sec (=   0.001 min)  27.4 %
SCF iterations                  ...        0.189 sec (=   0.003 min)  72.6 %
                             ****ORCA TERMINATED NORMALLY****
TOTAL RUN TIME: 0 days 0 hours 0 minutes 0 seconds 615 msec

