
                                 *****************
                                 * O   R   C   A *
                                 *****************

           --- An Ab Initio, DFT and Semiempirical electronic structure package ---

                  #######################################################
                  #                        -***-                        #
                  #  Department of molecular theory and spectroscopy    #
                  #              Directorship: Frank Neese              #
                  # Max Planck Institute for Chemical Energy Conversion #
                  #                  D-45470 Muelheim/Ruhr              #
                  #                       Germany                       #
                  #                                                     #
                  #                  All rights reserved                #
                  #                        -***-                        #
                  #######################################################


                         Program Version 3.0.3 - RELEASE   -


 With contributions from (in alphabetic order):
   Ute Becker             : Parallelization
   Dmytro Bykov           : SCF Hessian
   Dmitry Ganyushin       : Spin-Orbit,Spin-Spin,Magnetic field MRCI
   Andreas Hansen         : Spin unrestricted coupled pair/coupled cluster methods
   Dimitrios Liakos       : Extrapolation schemes; parallel MDCI
   Robert Izsak           : Overlap fitted RIJCOSX, COSX-SCS-MP3
   Christian Kollmar      : KDIIS, OOCD, Brueckner-CCSD(T), CCSD density
   Simone Kossmann        : Meta GGA functionals, TD-DFT gradient, OOMP2, MP2 Hessian
   Taras Petrenko         : DFT Hessian,TD-DFT gradient, ASA and ECA modules, normal mode analysis, Resonance Raman, ABS, FL, XAS/XES, NRVS
   Christoph Reimann      : Effective Core Potentials
   Michael Roemelt        : Restricted open shell CIS
   Christoph Riplinger    : Improved optimizer, TS searches, QM/MM, DLPNO-CCSD
   Barbara Sandhoefer     : DKH picture change effects
   Igor Schapiro          : Molecular dynamics
   Kantharuban Sivalingam : CASSCF convergence, NEVPT2
   Boris Wezisla          : Elementary symmetry handling
   Frank Wennmohs         : Technical directorship


 We gratefully acknowledge several colleagues who have allowed us to
 interface, adapt or use parts of their codes:
   Stefan Grimme, W. Hujo, H. Kruse, T. Risthaus : VdW corrections, initial TS optimization,
                                                   DFT functionals, gCP
   Ed Valeev                                     : LibInt (2-el integral package), F12 methods
   Garnet Chan, S. Sharma, R. Olivares           : DMRG
   Ulf Ekstrom                                   : XCFun DFT Library
   Mihaly Kallay                                 : mrcc  (arbitrary order and MRCC methods)
   Andreas Klamt, Michael Diedenhofen            : otool_cosmo (COSMO solvation model)
   Frank Weinhold                                : gennbo (NPA and NBO analysis)
   Christopher J. Cramer and Donald G. Truhlar   : smd solvation model


 Your calculation uses the libint2 library for the computation of 2-el integrals
 For citations please refer to: http://libint.valeyev.net

 This ORCA versions uses:
   CBLAS   interface :  Fast vector & matrix operations
   LAPACKE interface :  Fast linear algebra routines
   SCALAPACK package :  Parallel linear algebra routines


leaving
================================================================================
                                        WARNINGS
                       Please study these warnings very carefully!
================================================================================
Now building the actual basis set

WARNING: Direct SCF is incompatible with Method<>HF and Method<>DFT
  ===> : conventional SCF is chosen

WARNING: The NDO methods need Guess=HUECKEL or Guess=HCORE or Guess=MOREAD
  ===> : Guess is set to Hueckel

WARNING: The NDO methods need %rel::SOCType==1
  ===> : %rel::SOCType is set to 1

WARNING: The NDO methods cannot have frozencore=1
  ===> : %method FrozenCore=0 end


INFO   : the flag for use of LIBINT has been found!

================================================================================
                                       INPUT FILE
================================================================================
NAME = /Users/mattyjones/GoogleDrive/Boise/Code/MorphCT/tests/output_EZ/donor_polymer/chromophores/input_orca/pair/00002-00003.inp
|  1> # ================================================================
|  2> # Orca input file made by Matty Jones
|  3> # ================================================================
|  4> ! ZINDO/S 
|  5> ! NOPOP
|  6> ! NOMOPRINT
|  7> * xyz 0   1
|  8>  C  -1.27352  2.66615  -2.12596
|  9>  C  -2.10741  1.55384  -2.00225
| 10>  C  -1.56748  0.50654  -1.19236
| 11>  C  -0.30086  0.79333  -0.67395
| 12>  S  0.07901  2.30631  -1.23699
| 13>  H  -3.21611  1.59548  -2.25639
| 14>  C  -2.43284  -0.83308  -0.98956
| 15>  C  -4.10689  -0.66088  -0.88646
| 16>  C  -4.64836  -0.68887  -2.49782
| 17>  H  -5.67793  -0.16765  -2.52455
| 18>  H  -3.91440  -0.11154  -3.17439
| 19>  H  -4.56409  -1.53486  -0.30098
| 20>  H  -4.37473  0.34114  -0.39873
| 21>  H  -2.18628  -1.33442  0.03979
| 22>  H  -2.17502  -1.59153  -1.83093
| 23>  C  -4.76475  -2.20545  -3.07473
| 24>  C  -5.18970  -2.35394  -4.70387
| 25>  C  -5.47379  -0.92242  -5.53907
| 26>  H  -6.01688  -1.16854  -6.53236
| 27>  H  -4.46559  -0.40329  -5.76887
| 28>  H  -6.13785  -0.22131  -4.90257
| 29>  H  -4.32897  -2.90547  -5.24023
| 30>  H  -6.14692  -2.99391  -4.76013
| 31>  H  -3.74629  -2.74244  -2.94916
| 32>  H  -5.55738  -2.78112  -2.45723
| 33>  C  0.16522  -1.26111  -0.28125
| 34>  C  1.06791  -0.50867  0.47168
| 35>  C  1.92816  -1.29061  1.30403
| 36>  C  1.70363  -2.66744  1.20787
| 37>  S  0.46990  -2.84241  0.11345
| 38>  H  1.66458  0.45829  0.15469
| 39>  C  3.13572  -0.91666  2.33876
| 40>  C  4.57108  -0.07637  1.94829
| 41>  C  4.82441  1.57024  2.15578
| 42>  H  5.36707  1.97498  1.21846
| 43>  H  3.80204  2.09486  2.25795
| 44>  H  5.40479  -0.61818  2.54329
| 45>  H  4.74416  -0.28675  0.82255
| 46>  H  2.66705  -0.25339  3.17815
| 47>  H  3.52192  -1.88268  2.85584
| 48>  C  5.74121  1.85160  3.48034
| 49>  C  4.90955  1.68625  4.93759
| 50>  C  4.01640  3.04680  5.34667
| 51>  H  4.40236  3.96326  4.75471
| 52>  H  4.11497  3.24796  6.48167
| 53>  H  2.90471  2.85734  5.08156
| 54>  H  4.20528  0.77840  4.86360
| 55>  H  5.68490  1.50061  5.77126
| 56>  H  6.63226  1.11324  3.50123
| 57>  H  6.16493  2.92724  3.43184
| 58>  H  -1.46460  3.55382  -2.67290
| 59>  H  0.29232  0.17347  -0.05144
| 60>  H  -0.56182  -0.89818  -0.96189
| 61>  H  2.21491  -3.43798  1.72599
| 62> *
| 63> 
| 64>                          ****END OF INPUT****
================================================================================

                       ****************************
                       * Single Point Calculation *
                       ****************************

---------------------------------
CARTESIAN COORDINATES (ANGSTROEM)
---------------------------------
  C     -1.273520    2.666150   -2.125960
  C     -2.107410    1.553840   -2.002250
  C     -1.567480    0.506540   -1.192360
  C     -0.300860    0.793330   -0.673950
  S      0.079010    2.306310   -1.236990
  H     -3.216110    1.595480   -2.256390
  C     -2.432840   -0.833080   -0.989560
  C     -4.106890   -0.660880   -0.886460
  C     -4.648360   -0.688870   -2.497820
  H     -5.677930   -0.167650   -2.524550
  H     -3.914400   -0.111540   -3.174390
  H     -4.564090   -1.534860   -0.300980
  H     -4.374730    0.341140   -0.398730
  H     -2.186280   -1.334420    0.039790
  H     -2.175020   -1.591530   -1.830930
  C     -4.764750   -2.205450   -3.074730
  C     -5.189700   -2.353940   -4.703870
  C     -5.473790   -0.922420   -5.539070
  H     -6.016880   -1.168540   -6.532360
  H     -4.465590   -0.403290   -5.768870
  H     -6.137850   -0.221310   -4.902570
  H     -4.328970   -2.905470   -5.240230
  H     -6.146920   -2.993910   -4.760130
  H     -3.746290   -2.742440   -2.949160
  H     -5.557380   -2.781120   -2.457230
  C      0.165220   -1.261110   -0.281250
  C      1.067910   -0.508670    0.471680
  C      1.928160   -1.290610    1.304030
  C      1.703630   -2.667440    1.207870
  S      0.469900   -2.842410    0.113450
  H      1.664580    0.458290    0.154690
  C      3.135720   -0.916660    2.338760
  C      4.571080   -0.076370    1.948290
  C      4.824410    1.570240    2.155780
  H      5.367070    1.974980    1.218460
  H      3.802040    2.094860    2.257950
  H      5.404790   -0.618180    2.543290
  H      4.744160   -0.286750    0.822550
  H      2.667050   -0.253390    3.178150
  H      3.521920   -1.882680    2.855840
  C      5.741210    1.851600    3.480340
  C      4.909550    1.686250    4.937590
  C      4.016400    3.046800    5.346670
  H      4.402360    3.963260    4.754710
  H      4.114970    3.247960    6.481670
  H      2.904710    2.857340    5.081560
  H      4.205280    0.778400    4.863600
  H      5.684900    1.500610    5.771260
  H      6.632260    1.113240    3.501230
  H      6.164930    2.927240    3.431840
  H     -1.464600    3.553820   -2.672900
  H      0.292320    0.173470   -0.051440
  H     -0.561820   -0.898180   -0.961890
  H      2.214910   -3.437980    1.725990

----------------------------
CARTESIAN COORDINATES (A.U.)
----------------------------
  NO LB      ZA    FRAG    MASS        X           Y           Z
   0 C     4.0000    0    12.011         -2.406604026071392          5.038293331954145         -4.017482171671224
   1 C     4.0000    0    12.011         -3.982427751886985          2.936332055932198         -3.783704151643826
   2 C     4.0000    0    12.011         -2.962107920398883          0.957221875876471         -2.253233853042344
   3 C     4.0000    0    12.011         -0.568543004651548          1.499176433823747         -1.273580927956228
   4 S     6.0000    0    32.060          0.149307261841118          4.358294279923921         -2.337572330399249
   5 H     1.0000    0     1.008         -6.077567116565477          3.015020252148679         -4.263959151318574
   6 C     4.0000    0    12.011         -4.597401327648978         -1.574293047647116         -1.869997393083114
   7 C     4.0000    0    12.011         -7.760897362139849         -1.248882207385877         -1.675166628675833
   8 C     4.0000    0    12.011         -8.784127371874190         -1.301775641874333         -4.720195731831181
   9 H     1.0000    0     1.008        -10.729732707575492         -0.316812586351898         -4.770708111390896
  10 H     1.0000    0     1.008         -7.397143978621347         -0.210780052977576         -5.998727742258282
  11 H     1.0000    0     1.008         -8.624880150568647         -2.900465053910372         -0.568769771787618
  12 H     1.0000    0     1.008         -8.267041609849317          0.644661173325896         -0.753490501378421
  13 H     1.0000    0     1.008         -4.131470452069354         -2.521688347627197          0.075192202868727
  14 H     1.0000    0     1.008         -4.110192135801401         -3.007555833919689         -3.459956270380437
  15 C     4.0000    0    12.011         -9.004072596601285         -4.167696502056624         -5.810397635751690
  16 C     4.0000    0    12.011         -9.807111717211120         -4.448301935682592         -8.889026069568159
  17 C     4.0000    0    12.011        -10.343964014596809         -1.743121180451641        -10.467325336619187
  18 H     1.0000    0     1.008        -11.370255380668100         -2.208220576532339        -12.344371408181827
  19 H     1.0000    0     1.008         -8.438742126377402         -0.762107652549102        -10.901584402194290
  20 H     1.0000    0     1.008        -11.598855551088555         -0.418215290698112         -9.264514652378310
  21 H     1.0000    0     1.008         -8.180567741961081         -5.490542590324179         -9.902599578758162
  22 H     1.0000    0     1.008        -11.615995367123221         -5.657669969608174         -8.995342061862567
  23 H     1.0000    0     1.008         -7.079462118247847         -5.182460538710997         -5.573104725115199
  24 H     1.0000    0     1.008        -10.501926222131287         -5.255555145571072         -4.643491748055317
  25 C     4.0000    0    12.011          0.312220551846469         -2.383152524749430         -0.531485475165352
  26 C     4.0000    0    12.011          2.018057435675844         -0.961246992541723          0.891346022847976
  27 C     4.0000    0    12.011          3.643694342381601         -2.438899445700107          2.464259570417330
  28 C     4.0000    0    12.011          3.219394133532262         -5.040731078666903          2.282543505379462
  29 S     6.0000    0    32.060          0.887982310329596         -5.371376460319105          0.214389429893366
  30 H     1.0000    0     1.008          3.145600328002637          0.866042589914770          0.292321735656278
  31 C     4.0000    0    12.011          5.925652032659547         -1.732236357920255          4.419615892969667
  32 C     4.0000    0    12.011          8.638089336244756         -0.144318384847566          3.681734529457436
  33 C     4.0000    0    12.011          9.116813657751026          2.967323564528507          4.073833804984756
  34 H     1.0000    0     1.008         10.142292441584733          3.732171319971794          2.302555705137689
  35 H     1.0000    0     1.008          7.184814350213955          3.958711688906273          4.266907124087490
  36 H     1.0000    0     1.008         10.213572911356243         -1.168190901467439          4.806121579140580
  37 H     1.0000    0     1.008          8.965163135503845         -0.541878968901919          1.554394231456925
  38 H     1.0000    0     1.008          5.039994085474675         -0.478837705074306          6.005833112521826
  39 H     1.0000    0     1.008          6.655464265579935         -3.557749597810862          5.396755482297667
  40 C     4.0000    0    12.011         10.849314577330029          3.499016909568589          6.576889452931489
  41 C     4.0000    0    12.011          9.277704940793082          3.186550693324711          9.330692861588233
  42 C     4.0000    0    12.011          7.589896044281315          5.757617584831270         10.103742028452738
  43 H     1.0000    0     1.008          8.319254742929560          7.489475997524740          8.985099746216715
  44 H     1.0000    0     1.008          7.776166349301932          6.137754893930868         12.248581190453359
  45 H     1.0000    0     1.008          5.489106398462400          5.399590071498549          9.602756733088874
  46 H     1.0000    0     1.008          7.946827516456361          1.470962822644302          9.190872024939399
  47 H     1.0000    0     1.008         10.742904098728923          2.835741933823570         10.906100847654363
  48 H     1.0000    0     1.008         12.533155048960559          2.103718721326494          6.616365831869104
  49 H     1.0000    0     1.008         11.650029334795143          5.531681928259644          6.485237735436308
  50 H     1.0000    0     1.008         -2.767692895741065          6.715746529252023         -5.051048983358113
  51 H     1.0000    0     1.008          0.552404743467860          0.327810792451320         -0.097207512328909
  52 H     1.0000    0     1.008         -1.061685936559638         -1.697314218965390         -1.817708670957513
  53 H     1.0000    0     1.008          4.185573311283520         -6.496840653898585          3.261648409886741

--------------------------------
INTERNAL COORDINATES (ANGSTROEM)
--------------------------------
 C      0   0   0   0.000000     0.000     0.000
 C      1   0   0   1.395676     0.000     0.000
 C      2   1   0   1.429784   114.101     0.000
 C      3   2   1   1.398329   113.693     0.000
 S      1   2   3   1.658038   105.480     0.000
 H      2   1   3   1.138216   122.211   163.049
 C      3   2   1   1.607656   118.591   180.621
 C      7   3   2   1.686039   117.197   324.252
 C      8   7   3   1.700134   104.867    86.553
 H      9   8   7   1.154296   107.373   202.259
 H      9   8   7   1.153150   110.189   321.028
 H      8   7   3   1.147022   110.436   205.177
 H      8   7   3   1.146151   110.324   328.058
 H      7   3   2   1.171194   110.747   208.537
 H      7   3   2   1.161732   109.463    89.469
 C      9   8   7   1.626772   111.978    80.891
 C     16   9   8   1.690186   116.214   184.164
 C     17  16   9   1.681522   116.515   358.854
 H     18  17  16   1.158511   108.917   194.850
 H     18  17  16   1.157053   109.475    75.172
 H     18  17  16   1.156574   109.860   314.609
 H     17  16   9   1.154436   107.598   119.666
 H     17  16   9   1.152821   107.732   237.455
 H     16   9   8   1.158183   109.322   304.768
 H     16   9   8   1.158000   108.864    62.865
 C      4   3   2   2.142934    93.918   199.585
 C     26   4   3   1.395679    73.899   197.258
 C     27  26   4   1.429779   114.102   176.211
 C     28  27  26   1.398328   113.694     0.000
 S     26   4   3   1.658049   176.301   278.109
 H     27  26   4   1.179623   128.617   317.337
 C     28  27  26   1.633617   133.495   179.248
 C     32  28  27   1.708453   126.076   300.986
 C     33  32  28   1.678855   125.516    96.305
 H     34  33  32   1.156228   108.298   222.543
 H     34  33  32   1.153649   108.859   341.138
 H     33  32  28   1.158730   104.901   219.964
 H     33  32  28   1.158234   104.972   333.519
 H     32  28  27   1.167970   106.773    61.421
 H     32  28  27   1.161773   109.712   176.571
 C     34  33  32   1.635281   110.699   102.530
 C     41  34  33   1.685994   113.996   284.055
 C     42  41  34   1.678142   113.186   278.323
 H     43  42  41   1.157273   109.868   341.138
 H     43  42  41   1.156895   109.559   220.660
 H     43  42  41   1.158462   108.806   100.909
 H     42  41  34   1.151374   108.875    39.999
 H     42  41  34   1.153532   107.992   158.586
 H     41  34  33   1.157403   109.662    44.693
 H     41  34  33   1.157105   109.347   163.148
 H      1   2   3   1.060006   127.260   180.001
 H      4   3   2   1.060004   127.206   180.001
 H     26   4   3   1.059989    53.480    21.011
 H     29  28  27   1.059994   127.206   180.000

---------------------------
INTERNAL COORDINATES (A.U.)
---------------------------
 C      0   0   0   0.000000     0.000     0.000
 C      1   0   0   2.637445     0.000     0.000
 C      2   1   0   2.701901   114.101     0.000
 C      3   2   1   2.642459   113.693     0.000
 S      1   2   3   3.133238   105.480     0.000
 H      2   1   3   2.150917   122.211   163.049
 C      3   2   1   3.038029   118.591   180.621
 C      7   3   2   3.186151   117.197   324.252
 C      8   7   3   3.212787   104.867    86.553
 H      9   8   7   2.181303   107.373   202.259
 H      9   8   7   2.179137   110.189   321.028
 H      8   7   3   2.167558   110.436   205.177
 H      8   7   3   2.165912   110.324   328.058
 H      7   3   2   2.213236   110.747   208.537
 H      7   3   2   2.195355   109.463    89.469
 C      9   8   7   3.074153   111.978    80.891
 C     16   9   8   3.193989   116.214   184.164
 C     17  16   9   3.177616   116.515   358.854
 H     18  17  16   2.189268   108.917   194.850
 H     18  17  16   2.186513   109.475    75.172
 H     18  17  16   2.185608   109.860   314.609
 H     17  16   9   2.181569   107.598   119.666
 H     17  16   9   2.178517   107.732   237.455
 H     16   9   8   2.188648   109.322   304.768
 H     16   9   8   2.188303   108.864    62.865
 C      4   3   2   4.049559    93.918   199.585
 C     26   4   3   2.637450    73.899   197.258
 C     27  26   4   2.701890   114.102   176.211
 C     28  27  26   2.642457   113.694     0.000
 S     26   4   3   3.133259   176.301   278.109
 H     27  26   4   2.229164   128.617   317.337
 C     28  27  26   3.087090   133.495   179.248
 C     32  28  27   3.228509   126.076   300.986
 C     33  32  28   3.172575   125.516    96.305
 H     34  33  32   2.184954   108.298   222.543
 H     34  33  32   2.180080   108.859   341.138
 H     33  32  28   2.189683   104.901   219.964
 H     33  32  28   2.188746   104.972   333.519
 H     32  28  27   2.207144   106.773    61.421
 H     32  28  27   2.195433   109.712   176.571
 C     34  33  32   3.090234   110.699   102.530
 C     41  34  33   3.186067   113.996   284.055
 C     42  41  34   3.171228   113.186   278.323
 H     43  42  41   2.186929   109.868   341.138
 H     43  42  41   2.186215   109.559   220.660
 H     43  42  41   2.189175   108.806   100.909
 H     42  41  34   2.175782   108.875    39.999
 H     42  41  34   2.179859   107.992   158.586
 H     41  34  33   2.187175   109.662    44.693
 H     41  34  33   2.186612   109.347   163.148
 H      1   2   3   2.003121   127.260   180.001
 H      4   3   2   2.003117   127.206   180.001
 H     26   4   3   2.003088    53.480    21.011
 H     29  28  27   2.003099   127.206   180.000

----------------------------
SLATER BASIS SET DIM= 120
----------------------------
  0 C     2 shells
 l=0 nsto= 1
    2       1.625000000000        1.000000000000
 l=1 nsto= 1
    2       1.625000000000        1.000000000000
  1 C     2 shells
 l=0 nsto= 1
    2       1.625000000000        1.000000000000
 l=1 nsto= 1
    2       1.625000000000        1.000000000000
  2 C     2 shells
 l=0 nsto= 1
    2       1.625000000000        1.000000000000
 l=1 nsto= 1
    2       1.625000000000        1.000000000000
  3 C     2 shells
 l=0 nsto= 1
    2       1.625000000000        1.000000000000
 l=1 nsto= 1
    2       1.625000000000        1.000000000000
  4 S     2 shells
 l=0 nsto= 1
    3       1.925000000000        1.000000000000
 l=1 nsto= 1
    3       1.925000000000        1.000000000000
  5 H     1 shells
 l=0 nsto= 1
    1       1.200000000000        1.000000000000
  6 C     2 shells
 l=0 nsto= 1
    2       1.625000000000        1.000000000000
 l=1 nsto= 1
    2       1.625000000000        1.000000000000
  7 C     2 shells
 l=0 nsto= 1
    2       1.625000000000        1.000000000000
 l=1 nsto= 1
    2       1.625000000000        1.000000000000
  8 C     2 shells
 l=0 nsto= 1
    2       1.625000000000        1.000000000000
 l=1 nsto= 1
    2       1.625000000000        1.000000000000
  9 H     1 shells
 l=0 nsto= 1
    1       1.200000000000        1.000000000000
 10 H     1 shells
 l=0 nsto= 1
    1       1.200000000000        1.000000000000
 11 H     1 shells
 l=0 nsto= 1
    1       1.200000000000        1.000000000000
 12 H     1 shells
 l=0 nsto= 1
    1       1.200000000000        1.000000000000
 13 H     1 shells
 l=0 nsto= 1
    1       1.200000000000        1.000000000000
 14 H     1 shells
 l=0 nsto= 1
    1       1.200000000000        1.000000000000
 15 C     2 shells
 l=0 nsto= 1
    2       1.625000000000        1.000000000000
 l=1 nsto= 1
    2       1.625000000000        1.000000000000
 16 C     2 shells
 l=0 nsto= 1
    2       1.625000000000        1.000000000000
 l=1 nsto= 1
    2       1.625000000000        1.000000000000
 17 C     2 shells
 l=0 nsto= 1
    2       1.625000000000        1.000000000000
 l=1 nsto= 1
    2       1.625000000000        1.000000000000
 18 H     1 shells
 l=0 nsto= 1
    1       1.200000000000        1.000000000000
 19 H     1 shells
 l=0 nsto= 1
    1       1.200000000000        1.000000000000
 20 H     1 shells
 l=0 nsto= 1
    1       1.200000000000        1.000000000000
 21 H     1 shells
 l=0 nsto= 1
    1       1.200000000000        1.000000000000
 22 H     1 shells
 l=0 nsto= 1
    1       1.200000000000        1.000000000000
 23 H     1 shells
 l=0 nsto= 1
    1       1.200000000000        1.000000000000
 24 H     1 shells
 l=0 nsto= 1
    1       1.200000000000        1.000000000000
 25 C     2 shells
 l=0 nsto= 1
    2       1.625000000000        1.000000000000
 l=1 nsto= 1
    2       1.625000000000        1.000000000000
 26 C     2 shells
 l=0 nsto= 1
    2       1.625000000000        1.000000000000
 l=1 nsto= 1
    2       1.625000000000        1.000000000000
 27 C     2 shells
 l=0 nsto= 1
    2       1.625000000000        1.000000000000
 l=1 nsto= 1
    2       1.625000000000        1.000000000000
 28 C     2 shells
 l=0 nsto= 1
    2       1.625000000000        1.000000000000
 l=1 nsto= 1
    2       1.625000000000        1.000000000000
 29 S     2 shells
 l=0 nsto= 1
    3       1.925000000000        1.000000000000
 l=1 nsto= 1
    3       1.925000000000        1.000000000000
 30 H     1 shells
 l=0 nsto= 1
    1       1.200000000000        1.000000000000
 31 C     2 shells
 l=0 nsto= 1
    2       1.625000000000        1.000000000000
 l=1 nsto= 1
    2       1.625000000000        1.000000000000
 32 C     2 shells
 l=0 nsto= 1
    2       1.625000000000        1.000000000000
 l=1 nsto= 1
    2       1.625000000000        1.000000000000
 33 C     2 shells
 l=0 nsto= 1
    2       1.625000000000        1.000000000000
 l=1 nsto= 1
    2       1.625000000000        1.000000000000
 34 H     1 shells
 l=0 nsto= 1
    1       1.200000000000        1.000000000000
 35 H     1 shells
 l=0 nsto= 1
    1       1.200000000000        1.000000000000
 36 H     1 shells
 l=0 nsto= 1
    1       1.200000000000        1.000000000000
 37 H     1 shells
 l=0 nsto= 1
    1       1.200000000000        1.000000000000
 38 H     1 shells
 l=0 nsto= 1
    1       1.200000000000        1.000000000000
 39 H     1 shells
 l=0 nsto= 1
    1       1.200000000000        1.000000000000
 40 C     2 shells
 l=0 nsto= 1
    2       1.625000000000        1.000000000000
 l=1 nsto= 1
    2       1.625000000000        1.000000000000
 41 C     2 shells
 l=0 nsto= 1
    2       1.625000000000        1.000000000000
 l=1 nsto= 1
    2       1.625000000000        1.000000000000
 42 C     2 shells
 l=0 nsto= 1
    2       1.625000000000        1.000000000000
 l=1 nsto= 1
    2       1.625000000000        1.000000000000
 43 H     1 shells
 l=0 nsto= 1
    1       1.200000000000        1.000000000000
 44 H     1 shells
 l=0 nsto= 1
    1       1.200000000000        1.000000000000
 45 H     1 shells
 l=0 nsto= 1
    1       1.200000000000        1.000000000000
 46 H     1 shells
 l=0 nsto= 1
    1       1.200000000000        1.000000000000
 47 H     1 shells
 l=0 nsto= 1
    1       1.200000000000        1.000000000000
 48 H     1 shells
 l=0 nsto= 1
    1       1.200000000000        1.000000000000
 49 H     1 shells
 l=0 nsto= 1
    1       1.200000000000        1.000000000000
 50 H     1 shells
 l=0 nsto= 1
    1       1.200000000000        1.000000000000
 51 H     1 shells
 l=0 nsto= 1
    1       1.200000000000        1.000000000000
 52 H     1 shells
 l=0 nsto= 1
    1       1.200000000000        1.000000000000
 53 H     1 shells
 l=0 nsto= 1
    1       1.200000000000        1.000000000000
------------------------------------------------------------------------------
                           ORCA NDO INTEGRAL CALCULATION
------------------------------------------------------------------------------

--------------
NDO PARAMETERS
--------------

Gamma integral treatment              ... Mataga-Nishimoto
Nuclear repulsuion treatment          ... Direct (ZA*ZB/RAB)
Interaction factors:
s-s (sigma) =    1.0000
s-p (sigma) =    1.0000
s-d (sigma) =    1.0000
p-p (sigma) =    1.2670  p-p(pi) =    0.5850
p-d (sigma) =    1.0000  p-d(pi) =    1.0000
d-d (sigma) =    1.0000  d-d(pi) =    1.0000 d-d (delta) =    1.0000

fGamma parameter for Mataga-Nishimoto gamma integrals:    1.2000

--------------------------
Parameters for Element H :
--------------------------
 One-electron parameters (in eV)
  U(s)  =   -13.060000 Beta(s) =    12.000000 Neff(s) =     1.000000
 One-center electron repulsion parameters (in eV)
  G(s,s)=    12.850000
--------------------------
Parameters for Element C :
--------------------------
 One-electron parameters (in eV)
  U(s)  =   -50.870766 Beta(s) =    17.000000 Neff(s) =     2.000000
  U(p)  =   -41.599980 Beta(p) =    17.000000 Neff(p) =     2.000000 
 One-center electron repulsion parameters (in eV)
  G(s,s)=    11.110000
  G(s,p)=    11.110000 G(p,p)  =    11.110000
 Slater-Condon parameters (in eV)
 F2(p,p)=     4.5098 G1(s,p)=    6.8977
--------------------------
Parameters for Element S :
--------------------------
 One-electron parameters (in eV)
  U(s)  =   -69.509597 Beta(s) =    15.000000 Neff(s) =     2.000000
  U(p)  =   -60.725746 Beta(p) =    15.000000 Neff(p) =     4.000000 
 One-center electron repulsion parameters (in eV)
  G(s,s)=    10.090000
  G(s,p)=    10.090000 G(p,p)  =    10.090000
 Slater-Condon parameters (in eV)
 F2(p,p)=     4.5377 G1(s,p)=    3.0756

 Number of atoms                    ....   54
 Number of basis functions          ....  120

 Overlap integrals                  .... done
 One electron matrix                .... done
 Nuclear repulsion                  .... done
 Integral list                      .... done
 Electron-electron repulsion        .... done
-------------------------------------------------------------------------------
                                 ORCA SCF
-------------------------------------------------------------------------------

------------
SCF SETTINGS
------------
Hamiltonian:
 ZDO-Hamiltonian        Method          .... INDO


General Settings:
 Integral files         IntName         .... /Users/mattyjones/GoogleDrive/Boise/Code/MorphCT/tests/output_EZ/donor_polymer/chromophores/input_orca/pair/00002-00003
 Hartree-Fock type      HFTyp           .... RHF
 Total Charge           Charge          ....    0
 Multiplicity           Mult            ....    1
 Number of Electrons    NEL             ....  124
 Basis Dimension        Dim             ....  120
 Nuclear Repulsion      ENuc            ....    893.7219896931 Eh

Convergence Acceleration:
 DIIS                   CNVDIIS         .... on
   Start iteration      DIISMaxIt       ....    12
   Startup error        DIISStart       ....  0.200000
   # of expansion vecs  DIISMaxEq       ....     5
   Bias factor          DIISBfac        ....   1.050
   Max. coefficient     DIISMaxC        ....  10.000
 Newton-Raphson         CNVNR           .... off
 SOSCF                  CNVSOSCF        .... on
   Start iteration      SOSCFMaxIt      ....   150
   Startup grad/error   SOSCFStart      ....  0.003300
 Level Shifting         CNVShift        .... on
   Level shift para.    LevelShift      ....    0.2500
   Turn off err/grad.   ShiftErr        ....    0.0010
 Zerner damping         CNVZerner       .... off
 Static damping         CNVDamp         .... on
   Fraction old density DampFac         ....    0.7000
   Max. Damping (<1)    DampMax         ....    0.9800
   Min. Damping (>=0)   DampMin         ....    0.0000
   Turn off err/grad.   DampErr         ....    0.1000
 Fernandez-Rico         CNVRico         .... off

SCF Procedure:
 Maximum # iterations   MaxIter         ....   125
 SCF integral mode      SCFMode         .... Conventional
 Integral Buffer length BufferLength    .... 1048576
 Integral index format  IndFormat       ....     0
 Integral value format  ValFormat       ....     0
 Integral Storage       Thresh          ....  1.000e-08 Eh

Convergence Tolerance:
 Convergence Check Mode ConvCheckMode   .... Total+1el-Energy
 Energy Change          TolE            ....  1.000e-06 Eh
 1-El. energy change                    ....  1.000e-03 Eh
 Orbital Gradient       TolG            ....  5.000e-05
 Orbital Rotation angle TolX            ....  5.000e-05
 DIIS Error             TolErr          ....  1.000e-06


Diagonalization of the overlap matrix:
Smallest eigenvalue                        ... 1.353e-01
Time for diagonalization                   ...    0.003 sec
Threshold for overlap eigenvalues          ... 1.000e-08
Number of eigenvalues below threshold      ... 0
Time for construction of square roots      ...    0.001 sec
Total time needed                          ...    0.004 sec

-------------------------------
INITIAL GUESS: EXTENDED HUECKEL
-------------------------------
EHT matrix was read from disk
EHT matrix was diagonalized
Initial density was built
                      ------------------
                      INITIAL GUESS DONE
                      ------------------

 InCore treatment chosen:
   Memory dedicated               ...    1024 MB
   Memory needed                  ...      0 MB
   Number of tiny    integrals    ...       0
   Number of small   integrals    ...       0
   Number of regular integrals    ...    7392

--------------
SCF ITERATIONS
--------------
ITER       Energy         Delta-E        Max-DP      RMS-DP      [F,P]     Damp
  0      4.8506039397   0.000000000000 0.03844906  0.00140786  0.0982118 0.7000
  1      4.8113022982  -0.039301641487 0.03622706  0.00132858  0.0708331 0.7000
                               ***Turning on DIIS***
  2      4.7820244724  -0.029277825793 0.09153064  0.00342497  0.0469213 0.0000
  3      4.7018374482  -0.080187024243 0.01641697  0.00074375  0.0187167 0.0000
  4      4.7231359059   0.021298457748 0.01072414  0.00051426  0.0068404 0.0000
  5      4.7067758631  -0.016360042824 0.00811394  0.00034100  0.0040011 0.0000
  6      4.7009599149  -0.005815948225 0.00673629  0.00026083  0.0024058 0.0000
                      *** Initiating the SOSCF procedure ***
                           *** Shutting down DIIS ***
                      *** Re-Reading the Fockian *** 
                      *** Removing any level shift *** 
ITER      Energy       Delta-E        Grad      Rot      Max-DP    RMS-DP
  7      4.70431702   0.0033571076  0.003281  0.003281  0.004662  0.000174
  8      4.70520578   0.0008887550  0.000854  0.002424  0.002249  0.000088
  9      4.70517927  -0.0000265045  0.000381  0.002855  0.002795  0.000104
 10      4.70516818  -0.0000110944  0.000071  0.000225  0.000416  0.000012
                 **** Energy Check signals convergence ****
              ***Rediagonalizing the Fockian in SOSCF/NRSCF***

               *****************************************************
               *                     SUCCESS                       *
               *           SCF CONVERGED AFTER  11 CYCLES          *
               *****************************************************


----------------
TOTAL SCF ENERGY
----------------

Total Energy       :            4.70516788 Eh             128.03413 eV

Components:
Nuclear Repulsion  :          893.72198969 Eh           24319.41171 eV
Electronic Energy  :         -889.01682181 Eh          -24191.37759 eV

One Electron Energy:        -1687.03459080 Eh          -45906.54506 eV
Two Electron Energy:          798.01776899 Eh           21715.16747 eV


---------------
SCF CONVERGENCE
---------------

  Last Energy change         ...   -2.9643e-07  Tolerance :   1.0000e-06
  Last MAX-Density change    ...    1.1627e-04  Tolerance :   1.0000e-05
  Last RMS-Density change    ...    3.8849e-06  Tolerance :   1.0000e-06
  Last Orbital Gradient      ...    2.6946e-05  Tolerance :   5.0000e-05
  Last Orbital Rotation      ...    8.7610e-05  Tolerance :   5.0000e-05

             **** THE GBW FILE WAS UPDATED (/Users/mattyjones/GoogleDrive/Boise/Code/MorphCT/tests/output_EZ/donor_polymer/chromophores/input_orca/pair/00002-00003.gbw) ****
             **** DENSITY FILE WAS UPDATED (/Users/mattyjones/GoogleDrive/Boise/Code/MorphCT/tests/output_EZ/donor_polymer/chromophores/input_orca/pair/00002-00003.scfp.tmp) ****
             **** ENERGY FILE WAS UPDATED (/Users/mattyjones/GoogleDrive/Boise/Code/MorphCT/tests/output_EZ/donor_polymer/chromophores/input_orca/pair/00002-00003.en.tmp) ****
----------------
ORBITAL ENERGIES
----------------

  NO   OCC          E(Eh)            E(eV) 
   0   2.0000      -1.753406       -47.7126 
   1   2.0000      -1.549335       -42.1595 
   2   2.0000      -1.423793       -38.7434 
   3   2.0000      -1.422153       -38.6987 
   4   2.0000      -1.388148       -37.7734 
   5   2.0000      -1.303355       -35.4661 
   6   2.0000      -1.269703       -34.5504 
   7   2.0000      -1.176873       -32.0243 
   8   2.0000      -1.173143       -31.9228 
   9   2.0000      -1.081505       -29.4292 
  10   2.0000      -1.051185       -28.6042 
  11   2.0000      -1.018294       -27.7092 
  12   2.0000      -0.993266       -27.0282 
  13   2.0000      -0.985179       -26.8081 
  14   2.0000      -0.956456       -26.0265 
  15   2.0000      -0.929297       -25.2875 
  16   2.0000      -0.884423       -24.0664 
  17   2.0000      -0.850208       -23.1353 
  18   2.0000      -0.829914       -22.5831 
  19   2.0000      -0.818608       -22.2755 
  20   2.0000      -0.758743       -20.6464 
  21   2.0000      -0.745266       -20.2797 
  22   2.0000      -0.725620       -19.7451 
  23   2.0000      -0.713093       -19.4042 
  24   2.0000      -0.701537       -19.0898 
  25   2.0000      -0.694964       -18.9109 
  26   2.0000      -0.684635       -18.6299 
  27   2.0000      -0.678433       -18.4611 
  28   2.0000      -0.640514       -17.4293 
  29   2.0000      -0.628958       -17.1148 
  30   2.0000      -0.619751       -16.8643 
  31   2.0000      -0.614353       -16.7174 
  32   2.0000      -0.609251       -16.5786 
  33   2.0000      -0.595503       -16.2045 
  34   2.0000      -0.591968       -16.1083 
  35   2.0000      -0.584089       -15.8939 
  36   2.0000      -0.571062       -15.5394 
  37   2.0000      -0.555086       -15.1047 
  38   2.0000      -0.554339       -15.0843 
  39   2.0000      -0.539184       -14.6719 
  40   2.0000      -0.535546       -14.5729 
  41   2.0000      -0.525597       -14.3022 
  42   2.0000      -0.514150       -13.9907 
  43   2.0000      -0.508926       -13.8486 
  44   2.0000      -0.504102       -13.7173 
  45   2.0000      -0.500080       -13.6079 
  46   2.0000      -0.495805       -13.4915 
  47   2.0000      -0.487384       -13.2624 
  48   2.0000      -0.479610       -13.0508 
  49   2.0000      -0.478458       -13.0195 
  50   2.0000      -0.475803       -12.9473 
  51   2.0000      -0.469205       -12.7677 
  52   2.0000      -0.463710       -12.6182 
  53   2.0000      -0.453399       -12.3376 
  54   2.0000      -0.442885       -12.0515 
  55   2.0000      -0.436543       -11.8789 
  56   2.0000      -0.430418       -11.7123 
  57   2.0000      -0.396840       -10.7986 
  58   2.0000      -0.347660        -9.4603 
  59   2.0000      -0.321978        -8.7615 
  60   2.0000      -0.291091        -7.9210 
  61   2.0000      -0.275612        -7.4998 
  62   0.0000      -0.010771        -0.2931 
  63   0.0000       0.011403         0.3103 
  64   0.0000       0.044406         1.2083 
  65   0.0000       0.066280         1.8036 
  66   0.0000       0.069742         1.8978 
  67   0.0000       0.080074         2.1789 
  68   0.0000       0.086072         2.3421 
  69   0.0000       0.088282         2.4023 
  70   0.0000       0.093341         2.5399 
  71   0.0000       0.101408         2.7594 
  72   0.0000       0.107282         2.9193 
  73   0.0000       0.119272         3.2456 
  74   0.0000       0.122587         3.3358 
  75   0.0000       0.125972         3.4279 
  76   0.0000       0.138870         3.7788 
  77   0.0000       0.144006         3.9186 
  78   0.0000       0.152034         4.1370 
  79   0.0000       0.158528         4.3138 
  80   0.0000       0.159298         4.3347 
  81   0.0000       0.164468         4.4754 
  82   0.0000       0.167220         4.5503 
  83   0.0000       0.176794         4.8108 
  84   0.0000       0.200034         5.4432 
  85   0.0000       0.206350         5.6151 
  86   0.0000       0.225249         6.1293 
  87   0.0000       0.229190         6.2366 
  88   0.0000       0.232016         6.3135 
  89   0.0000       0.234120         6.3707 
  90   0.0000       0.235727         6.4145 
  91   0.0000       0.237847         6.4721 
  92   0.0000       0.238365         6.4862 
  93   0.0000       0.238986         6.5031 
  94   0.0000       0.239293         6.5115 
  95   0.0000       0.241339         6.5672 
  96   0.0000       0.242062         6.5868 
  97   0.0000       0.243760         6.6331 
  98   0.0000       0.244052         6.6410 
  99   0.0000       0.245085         6.6691 
 100   0.0000       0.245694         6.6857 
 101   0.0000       0.259138         7.0515 
 102   0.0000       0.259794         7.0694 
 103   0.0000       0.263155         7.1608 
 104   0.0000       0.269640         7.3373 
 105   0.0000       0.273688         7.4474 
 106   0.0000       0.284237         7.7345 
 107   0.0000       0.287189         7.8148 
 108   0.0000       0.298793         8.1306 
 109   0.0000       0.299910         8.1610 
 110   0.0000       0.306333         8.3357 
 111   0.0000       0.316565         8.6142 
 112   0.0000       0.332806         9.0561 
 113   0.0000       0.340879         9.2758 
 114   0.0000       0.344768         9.3816 
 115   0.0000       0.353403         9.6166 
 116   0.0000       0.397725        10.8226 
 117   0.0000       0.411767        11.2047 
 118   0.0000       0.432956        11.7813 
 119   0.0000       0.444749        12.1022 
-------
TIMINGS
-------

Total SCF time: 0 days 0 hours 0 min 0 sec 

Total time                  ....       0.121 sec
Sum of individual times     ....       0.098 sec  ( 81.4%)

Fock matrix formation       ....       0.049 sec  ( 40.3%)
Diagonalization             ....       0.020 sec  ( 16.6%)
Density matrix formation    ....       0.005 sec  (  4.1%)
Population analysis         ....       0.000 sec  (  0.0%)
Initial guess               ....       0.003 sec  (  2.1%)
Orbital Transformation      ....       0.000 sec  (  0.0%)
Orbital Orthonormalization  ....       0.000 sec  (  0.0%)
DIIS solution               ....       0.016 sec  ( 13.1%)
SOSCF solution              ....       0.006 sec  (  5.1%)

-------------------------   --------------------
FINAL SINGLE POINT ENERGY         4.705167882077
-------------------------   --------------------


                            ***************************************
                            *     ORCA property calculations      *
                            ***************************************

                                    ---------------------
                                    Active property flags
                                    ---------------------
   (+) Dipole Moment


------------------------------------------------------------------------------
                       ORCA ELECTRIC PROPERTIES CALCULATION
------------------------------------------------------------------------------

Dipole Moment Calculation                       ... on
Quadrupole Moment Calculation                   ... off
Polarizability Calculation                      ... off
GBWName                                         ... /Users/mattyjones/GoogleDrive/Boise/Code/MorphCT/tests/output_EZ/donor_polymer/chromophores/input_orca/pair/00002-00003.gbw
Electron density file                           ... /Users/mattyjones/GoogleDrive/Boise/Code/MorphCT/tests/output_EZ/donor_polymer/chromophores/input_orca/pair/00002-00003.scfp.tmp

-------------
DIPOLE MOMENT
-------------
                                X             Y             Z
Electronic contribution:     14.18267     -15.03837     -28.13820
Nuclear contribution   :     -7.07305       7.93852      15.21733
                        -----------------------------------------
Total Dipole Moment    :      7.10962      -7.09986     -12.92087
                        -----------------------------------------
Magnitude (a.u.)       :     16.36776
Magnitude (Debye)      :     41.60355


Timings for individual modules:

Sum of individual times         ...        0.210 sec (=   0.003 min)
STO integral calculation        ...        0.045 sec (=   0.001 min)  21.3 %
SCF iterations                  ...        0.165 sec (=   0.003 min)  78.7 %
                             ****ORCA TERMINATED NORMALLY****
TOTAL RUN TIME: 0 days 0 hours 0 minutes 0 seconds 514 msec

