
                                 *****************
                                 * O   R   C   A *
                                 *****************

           --- An Ab Initio, DFT and Semiempirical electronic structure package ---

                  #######################################################
                  #                        -***-                        #
                  #  Department of molecular theory and spectroscopy    #
                  #              Directorship: Frank Neese              #
                  # Max Planck Institute for Chemical Energy Conversion #
                  #                  D-45470 Muelheim/Ruhr              #
                  #                       Germany                       #
                  #                                                     #
                  #                  All rights reserved                #
                  #                        -***-                        #
                  #######################################################


                         Program Version 3.0.3 - RELEASE   -


 With contributions from (in alphabetic order):
   Ute Becker             : Parallelization
   Dmytro Bykov           : SCF Hessian
   Dmitry Ganyushin       : Spin-Orbit,Spin-Spin,Magnetic field MRCI
   Andreas Hansen         : Spin unrestricted coupled pair/coupled cluster methods
   Dimitrios Liakos       : Extrapolation schemes; parallel MDCI
   Robert Izsak           : Overlap fitted RIJCOSX, COSX-SCS-MP3
   Christian Kollmar      : KDIIS, OOCD, Brueckner-CCSD(T), CCSD density
   Simone Kossmann        : Meta GGA functionals, TD-DFT gradient, OOMP2, MP2 Hessian
   Taras Petrenko         : DFT Hessian,TD-DFT gradient, ASA and ECA modules, normal mode analysis, Resonance Raman, ABS, FL, XAS/XES, NRVS
   Christoph Reimann      : Effective Core Potentials
   Michael Roemelt        : Restricted open shell CIS
   Christoph Riplinger    : Improved optimizer, TS searches, QM/MM, DLPNO-CCSD
   Barbara Sandhoefer     : DKH picture change effects
   Igor Schapiro          : Molecular dynamics
   Kantharuban Sivalingam : CASSCF convergence, NEVPT2
   Boris Wezisla          : Elementary symmetry handling
   Frank Wennmohs         : Technical directorship


 We gratefully acknowledge several colleagues who have allowed us to
 interface, adapt or use parts of their codes:
   Stefan Grimme, W. Hujo, H. Kruse, T. Risthaus : VdW corrections, initial TS optimization,
                                                   DFT functionals, gCP
   Ed Valeev                                     : LibInt (2-el integral package), F12 methods
   Garnet Chan, S. Sharma, R. Olivares           : DMRG
   Ulf Ekstrom                                   : XCFun DFT Library
   Mihaly Kallay                                 : mrcc  (arbitrary order and MRCC methods)
   Andreas Klamt, Michael Diedenhofen            : otool_cosmo (COSMO solvation model)
   Frank Weinhold                                : gennbo (NPA and NBO analysis)
   Christopher J. Cramer and Donald G. Truhlar   : smd solvation model


 Your calculation uses the libint2 library for the computation of 2-el integrals
 For citations please refer to: http://libint.valeyev.net

 This ORCA versions uses:
   CBLAS   interface :  Fast vector & matrix operations
   LAPACKE interface :  Fast linear algebra routines
   SCALAPACK package :  Parallel linear algebra routines


leaving
================================================================================
                                        WARNINGS
                       Please study these warnings very carefully!
================================================================================
Now building the actual basis set

WARNING: Direct SCF is incompatible with Method<>HF and Method<>DFT
  ===> : conventional SCF is chosen

WARNING: The NDO methods need Guess=HUECKEL or Guess=HCORE or Guess=MOREAD
  ===> : Guess is set to Hueckel

WARNING: The NDO methods need %rel::SOCType==1
  ===> : %rel::SOCType is set to 1

WARNING: The NDO methods cannot have frozencore=1
  ===> : %method FrozenCore=0 end


INFO   : the flag for use of LIBINT has been found!

================================================================================
                                       INPUT FILE
================================================================================
NAME = /Users/mattyjones/GoogleDrive/Boise/Code/MorphCT/tests/output_EZ/donor_polymer/chromophores/input_orca/pair/00003-00004.inp
|  1> # ================================================================
|  2> # Orca input file made by Matty Jones
|  3> # ================================================================
|  4> ! ZINDO/S 
|  5> ! NOPOP
|  6> ! NOMOPRINT
|  7> * xyz 0   1
|  8>  C  -1.36926  2.40838  -2.08403
|  9>  C  -0.46658  3.16082  -1.33110
| 10>  C  0.39368  2.37888  -0.49875
| 11>  C  0.16915  1.00205  -0.59491
| 12>  S  -1.06458  0.82708  -1.68933
| 13>  H  0.13010  4.12778  -1.64809
| 14>  C  1.60124  2.75283  0.53598
| 15>  C  3.03660  3.59312  0.14550
| 16>  C  3.28992  5.23973  0.35299
| 17>  H  3.83259  5.64447  -0.58432
| 18>  H  2.26756  5.76435  0.45517
| 19>  H  3.87031  3.05131  0.74051
| 20>  H  3.20967  3.38274  -0.98024
| 21>  H  1.13257  3.41610  1.37537
| 22>  H  1.98744  1.78681  1.05305
| 23>  C  4.20673  5.52109  1.67755
| 24>  C  3.37507  5.35574  3.13480
| 25>  C  2.48192  6.71629  3.54388
| 26>  H  2.86787  7.63275  2.95193
| 27>  H  2.58049  6.91744  4.67888
| 28>  H  1.37023  6.52683  3.27878
| 29>  H  2.67080  4.44789  3.06082
| 30>  H  4.15041  5.17010  3.96847
| 31>  H  5.09778  4.78273  1.69844
| 32>  H  4.63045  6.59673  1.62906
| 33>  C  0.63604  -0.43714  0.15650
| 34>  C  0.03828  -1.64477  -0.20710
| 35>  C  0.54003  -2.78108  0.50092
| 36>  C  1.53904  -2.46914  1.42828
| 37>  S  1.74603  -0.82692  1.32486
| 38>  H  -0.79033  -1.75125  -0.98523
| 39>  C  -0.06066  -4.26095  0.21365
| 40>  C  -1.74994  -4.55449  0.39726
| 41>  C  -3.17382  -4.44287  -0.56191
| 42>  H  -3.86593  -5.26663  -0.11599
| 43>  H  -3.62076  -3.41401  -0.25224
| 44>  H  -1.76642  -5.67097  0.71656
| 45>  H  -2.01712  -3.90865  1.32351
| 46>  H  0.47581  -5.07688  0.83850
| 47>  H  0.14208  -4.51329  -0.91294
| 48>  C  -3.32980  -4.53712  -2.18274
| 49>  C  -3.82496  -6.03897  -2.80611
| 50>  C  -5.49513  -6.25788  -2.94010
| 51>  H  -5.71897  -7.38410  -3.08726
| 52>  H  -5.88856  -5.66277  -3.85053
| 53>  H  -6.01118  -5.88228  -1.97534
| 54>  H  -3.37654  -6.14222  -3.86256
| 55>  H  -3.40839  -6.86760  -2.12468
| 56>  H  -4.11489  -3.75975  -2.52997
| 57>  H  -2.31559  -4.28210  -2.67528
| 58>  H  -2.09631  2.77131  -2.76468
| 59>  H  2.05583  -3.14153  2.06422
| 60> *
| 61> 
| 62>                          ****END OF INPUT****
================================================================================

                       ****************************
                       * Single Point Calculation *
                       ****************************

---------------------------------
CARTESIAN COORDINATES (ANGSTROEM)
---------------------------------
  C     -1.369260    2.408380   -2.084030
  C     -0.466580    3.160820   -1.331100
  C      0.393680    2.378880   -0.498750
  C      0.169150    1.002050   -0.594910
  S     -1.064580    0.827080   -1.689330
  H      0.130100    4.127780   -1.648090
  C      1.601240    2.752830    0.535980
  C      3.036600    3.593120    0.145500
  C      3.289920    5.239730    0.352990
  H      3.832590    5.644470   -0.584320
  H      2.267560    5.764350    0.455170
  H      3.870310    3.051310    0.740510
  H      3.209670    3.382740   -0.980240
  H      1.132570    3.416100    1.375370
  H      1.987440    1.786810    1.053050
  C      4.206730    5.521090    1.677550
  C      3.375070    5.355740    3.134800
  C      2.481920    6.716290    3.543880
  H      2.867870    7.632750    2.951930
  H      2.580490    6.917440    4.678880
  H      1.370230    6.526830    3.278780
  H      2.670800    4.447890    3.060820
  H      4.150410    5.170100    3.968470
  H      5.097780    4.782730    1.698440
  H      4.630450    6.596730    1.629060
  C      0.636040   -0.437140    0.156500
  C      0.038280   -1.644770   -0.207100
  C      0.540030   -2.781080    0.500920
  C      1.539040   -2.469140    1.428280
  S      1.746030   -0.826920    1.324860
  H     -0.790330   -1.751250   -0.985230
  C     -0.060660   -4.260950    0.213650
  C     -1.749940   -4.554490    0.397260
  C     -3.173820   -4.442870   -0.561910
  H     -3.865930   -5.266630   -0.115990
  H     -3.620760   -3.414010   -0.252240
  H     -1.766420   -5.670970    0.716560
  H     -2.017120   -3.908650    1.323510
  H      0.475810   -5.076880    0.838500
  H      0.142080   -4.513290   -0.912940
  C     -3.329800   -4.537120   -2.182740
  C     -3.824960   -6.038970   -2.806110
  C     -5.495130   -6.257880   -2.940100
  H     -5.718970   -7.384100   -3.087260
  H     -5.888560   -5.662770   -3.850530
  H     -6.011180   -5.882280   -1.975340
  H     -3.376540   -6.142220   -3.862560
  H     -3.408390   -6.867600   -2.124680
  H     -4.114890   -3.759750   -2.529970
  H     -2.315590   -4.282100   -2.675280
  H     -2.096310    2.771310   -2.764680
  H      2.055830   -3.141530    2.064220

----------------------------
CARTESIAN COORDINATES (A.U.)
----------------------------
  NO LB      ZA    FRAG    MASS        X           Y           Z
   0 C     4.0000    0    12.011         -2.587526406133013          4.551178626413265         -3.938245954875906
   1 C     4.0000    0    12.011         -0.881708419564978          5.973084158620971         -2.515414456862578
   2 C     4.0000    0    12.011          0.743947384402118          4.495431705462587         -0.942500909293224
   3 C     4.0000    0    12.011          0.319647175552780          1.893600072495790         -1.124216974331092
   4 S     6.0000    0    32.060         -2.011764647649886          1.562954690843589         -3.192371049817188
   5 H     1.0000    0     1.008          0.245853370023155          7.800373741077463         -3.114438744054276
   6 C     4.0000    0    12.011          3.025905074680065          5.202094793242439          1.012855413259113
   7 C     4.0000    0    12.011          5.738342378265273          6.790012766315128          0.274955152485542
   8 C     4.0000    0    12.011          6.217047802510204          9.901654715691199          0.667054428012863
   9 H     1.0000    0     1.008          7.242545483605250         10.666502471134487         -1.104204774572866
  10 H     1.0000    0     1.008          4.285067392234473         10.893042840068967          0.860146644376936
  11 H     1.0000    0     1.008          7.313825953376759          5.766140249695255          1.399361099430026
  12 H     1.0000    0     1.008          6.065397280263024          6.392452182260775         -1.852385145514968
  13 H     1.0000    0     1.008          2.140247127495192          6.455493446088388          2.599072632811272
  14 H     1.0000    0     1.008          3.755717307600452          3.376581553351832          1.989976105325774
  15 C     4.0000    0    12.011          7.949567619350548         10.433348060731284          3.170110075959596
  16 C     4.0000    0    12.011          6.377957982813599         10.120881844487405          5.923913484616340
  17 C     4.0000    0    12.011          4.690149086301833         12.691948735993963          6.696962651480845
  18 H     1.0000    0     1.008          5.419488887688740         14.423807148687432          5.578339266506160
  19 H     1.0000    0     1.008          4.876419391322451         13.072067147832223          8.841801813481467
  20 H     1.0000    0     1.008          2.589359440482917         12.333921222661244          6.195996253378321
  21 H     1.0000    0     1.008          5.047080558476878          8.405293973806996          5.784111545228845
  22 H     1.0000    0     1.008          7.843138243488102          9.770073084986263          7.499321470682469
  23 H     1.0000    0     1.008          9.633408090981078          9.038049872489188          3.209586454897210
  24 H     1.0000    0     1.008          8.750282376815660         12.466013079422339          3.078477255725754
  25 C     4.0000    0    12.011          1.201941410219273         -0.826074882182336          0.295742139958676
  26 C     4.0000    0    12.011          0.072338716406506         -3.108164853289657         -0.391362282335091
  27 C     4.0000    0    12.011          1.020508804101494         -5.255479556525715          0.946601615003833
  28 C     4.0000    0    12.011          2.908364109150163         -4.665998386310319          2.699058042557045
  29 S     6.0000    0    32.060          3.299518521610523         -1.562652334662161          2.503622565786909
  30 H     1.0000    0     1.008         -1.493507255421983         -3.309382892029592         -1.861814878923235
  31 C     4.0000    0    12.011         -0.114630787283663         -8.052028570331757          0.403739988512275
  32 C     4.0000    0    12.011         -3.306907350794155         -8.606738779683003          0.750712603961556
  33 C     4.0000    0    12.011         -5.997650598361947         -8.395807548614712         -1.061856011911691
  34 H     1.0000    0     1.008         -7.305548952910184         -9.952488348693683         -0.219189334273526
  35 H     1.0000    0     1.008         -6.842244796656711         -6.451543918468492         -0.476664520020297
  36 H     1.0000    0     1.008         -3.338050037481178        -10.716580213683400          1.354102158522612
  37 H     1.0000    0     1.008         -3.811804379255235         -7.386278053351301          2.501071435506116
  38 H     1.0000    0     1.008          0.899150591781071         -9.593912814782124          1.584535363292970
  39 H     1.0000    0     1.008          0.268492289107531         -8.528882062965446         -1.725206576702067
  40 C     4.0000    0    12.011         -6.292410080730984         -8.573914236736789         -4.124780821555273
  41 C     4.0000    0    12.011         -7.228126873203431        -11.411999430966421         -5.302779401657763
  42 C     4.0000    0    12.011        -10.384290770294687        -11.825679378943123         -5.555983806341873
  43 H     1.0000    0     1.008        -10.807287068111620        -13.953926745487914         -5.834075904209723
  44 H     1.0000    0     1.008        -11.127765723163325        -10.701084459385246         -7.276447170447797
  45 H     1.0000    0     1.008        -11.359483941704751        -11.115898243042301         -3.732851621380005
  46 H     1.0000    0     1.008         -6.380735880230463        -11.607113654293791         -7.299180575838871
  47 H     1.0000    0     1.008         -6.440923657595855        -12.977883197317588         -4.015063322219805
  48 H     1.0000    0     1.008         -7.776015171211220         -7.104897832010426         -4.780950427036749
  49 H     1.0000    0     1.008         -4.375830938446711         -8.091996278064192         -5.055546531556846
  50 H     1.0000    0     1.008         -3.961451791800459          5.237016932197304         -5.224488047929405
  51 H     1.0000    0     1.008          3.884955677899327         -5.936631341497629          3.900810480162926

--------------------------------
INTERNAL COORDINATES (ANGSTROEM)
--------------------------------
 C      0   0   0   0.000000     0.000     0.000
 C      1   0   0   1.395672     0.000     0.000
 C      2   1   0   1.429785   114.102     0.000
 C      3   2   1   1.398328   113.693     0.000
 S      1   2   3   1.658049   105.480     0.000
 H      2   1   3   1.179628   128.617   141.125
 C      3   2   1   1.633617   133.495   179.247
 C      7   3   2   1.708456   126.076   300.986
 C      8   7   3   1.678853   125.515    96.306
 H      9   8   7   1.156225   108.298   222.542
 H      9   8   7   1.153641   108.859   341.138
 H      8   7   3   1.158735   104.901   219.964
 H      8   7   3   1.158233   104.972   333.519
 H      7   3   2   1.167970   106.773    61.421
 H      7   3   2   1.161769   109.712   176.571
 C      9   8   7   1.635287   110.699   102.530
 C     16   9   8   1.685994   113.996   284.054
 C     17  16   9   1.678142   113.186   278.323
 H     18  17  16   1.157265   109.868   341.138
 H     18  17  16   1.156893   109.559   220.660
 H     18  17  16   1.158459   108.806   100.910
 H     17  16   9   1.151373   108.876    40.000
 H     17  16   9   1.153525   107.992   158.586
 H     16   9   8   1.157403   109.662    44.693
 H     16   9   8   1.157105   109.348   163.148
 C      4   3   2   1.689340   139.806   188.698
 C     26   4   3   1.395669   120.192   173.745
 C     27  26   4   1.429771   114.102   179.417
 C     28  27  26   1.398329   113.693     0.000
 S     26   4   3   1.658032   134.325   352.960
 H     27  26   4   1.141674   124.689   358.574
 C     28  27  26   1.622765   120.478   179.184
 C     32  28  27   1.724397   119.935   303.193
 C     33  32  28   1.720436   137.763    87.681
 H     34  33  32   1.164664   103.443   150.890
 H     34  33  32   1.163703   103.113   262.442
 H     33  32  28   1.161358   101.936   210.561
 H     33  32  28   1.160359   102.463   322.504
 H     32  28  27   1.159301   112.032   177.969
 H     32  28  27   1.172171   107.604    61.056
 C     34  33  32   1.631043   129.008    26.296
 C     41  34  33   1.699802   116.318    99.018
 C     42  41  34   1.689776   115.561    89.257
 H     43  42  41   1.157641   109.101   195.535
 H     43  42  41   1.156644   109.388    75.708
 H     43  42  41   1.156782   109.435   315.458
 H     42  41  34   1.152314   107.579   209.307
 H     42  41  34   1.150871   108.275   327.824
 H     41  34  33   1.158119   108.904   219.430
 H     41  34  33   1.155964   109.073   337.796
 H      1   2   3   1.060002   127.260   180.000
 H     29  28  27   1.060000   127.206   180.000

---------------------------
INTERNAL COORDINATES (A.U.)
---------------------------
 C      0   0   0   0.000000     0.000     0.000
 C      1   0   0   2.637438     0.000     0.000
 C      2   1   0   2.701901   114.102     0.000
 C      3   2   1   2.642457   113.693     0.000
 S      1   2   3   3.133259   105.480     0.000
 H      2   1   3   2.229173   128.617   141.125
 C      3   2   1   3.087090   133.495   179.247
 C      7   3   2   3.228513   126.076   300.986
 C      8   7   3   3.172573   125.515    96.306
 H      9   8   7   2.184948   108.298   222.542
 H      9   8   7   2.180065   108.859   341.138
 H      8   7   3   2.189692   104.901   219.964
 H      8   7   3   2.188743   104.972   333.519
 H      7   3   2   2.207144   106.773    61.421
 H      7   3   2   2.195425   109.712   176.571
 C      9   8   7   3.090244   110.699   102.530
 C     16   9   8   3.186067   113.996   284.054
 C     17  16   9   3.171228   113.186   278.323
 H     18  17  16   2.186913   109.868   341.138
 H     18  17  16   2.186212   109.559   220.660
 H     18  17  16   2.189171   108.806   100.910
 H     17  16   9   2.175781   108.876    40.000
 H     17  16   9   2.179846   107.992   158.586
 H     16   9   8   2.187175   109.662    44.693
 H     16   9   8   2.186611   109.348   163.148
 C      4   3   2   3.192391   139.806   188.698
 C     26   4   3   2.637432   120.192   173.745
 C     27  26   4   2.701876   114.102   179.417
 C     28  27  26   2.642459   113.693     0.000
 S     26   4   3   3.133227   134.325   352.960
 H     27  26   4   2.157451   124.689   358.574
 C     28  27  26   3.066582   120.478   179.184
 C     32  28  27   3.258638   119.935   303.193
 C     33  32  28   3.251153   137.763    87.681
 H     34  33  32   2.200895   103.443   150.890
 H     34  33  32   2.199079   103.113   262.442
 H     33  32  28   2.194648   101.936   210.561
 H     33  32  28   2.192761   102.463   322.504
 H     32  28  27   2.190762   112.032   177.969
 H     32  28  27   2.215081   107.604    61.056
 C     34  33  32   3.082225   129.008    26.296
 C     41  34  33   3.212160   116.318    99.018
 C     42  41  34   3.193214   115.561    89.257
 H     43  42  41   2.187624   109.101   195.535
 H     43  42  41   2.185741   109.388    75.708
 H     43  42  41   2.186001   109.435   315.458
 H     42  41  34   2.177558   107.579   209.307
 H     42  41  34   2.174832   108.275   327.824
 H     41  34  33   2.188527   108.904   219.430
 H     41  34  33   2.184455   109.073   337.796
 H      1   2   3   2.003114   127.260   180.000
 H     29  28  27   2.003110   127.206   180.000

----------------------------
SLATER BASIS SET DIM= 118
----------------------------
  0 C     2 shells
 l=0 nsto= 1
    2       1.625000000000        1.000000000000
 l=1 nsto= 1
    2       1.625000000000        1.000000000000
  1 C     2 shells
 l=0 nsto= 1
    2       1.625000000000        1.000000000000
 l=1 nsto= 1
    2       1.625000000000        1.000000000000
  2 C     2 shells
 l=0 nsto= 1
    2       1.625000000000        1.000000000000
 l=1 nsto= 1
    2       1.625000000000        1.000000000000
  3 C     2 shells
 l=0 nsto= 1
    2       1.625000000000        1.000000000000
 l=1 nsto= 1
    2       1.625000000000        1.000000000000
  4 S     2 shells
 l=0 nsto= 1
    3       1.925000000000        1.000000000000
 l=1 nsto= 1
    3       1.925000000000        1.000000000000
  5 H     1 shells
 l=0 nsto= 1
    1       1.200000000000        1.000000000000
  6 C     2 shells
 l=0 nsto= 1
    2       1.625000000000        1.000000000000
 l=1 nsto= 1
    2       1.625000000000        1.000000000000
  7 C     2 shells
 l=0 nsto= 1
    2       1.625000000000        1.000000000000
 l=1 nsto= 1
    2       1.625000000000        1.000000000000
  8 C     2 shells
 l=0 nsto= 1
    2       1.625000000000        1.000000000000
 l=1 nsto= 1
    2       1.625000000000        1.000000000000
  9 H     1 shells
 l=0 nsto= 1
    1       1.200000000000        1.000000000000
 10 H     1 shells
 l=0 nsto= 1
    1       1.200000000000        1.000000000000
 11 H     1 shells
 l=0 nsto= 1
    1       1.200000000000        1.000000000000
 12 H     1 shells
 l=0 nsto= 1
    1       1.200000000000        1.000000000000
 13 H     1 shells
 l=0 nsto= 1
    1       1.200000000000        1.000000000000
 14 H     1 shells
 l=0 nsto= 1
    1       1.200000000000        1.000000000000
 15 C     2 shells
 l=0 nsto= 1
    2       1.625000000000        1.000000000000
 l=1 nsto= 1
    2       1.625000000000        1.000000000000
 16 C     2 shells
 l=0 nsto= 1
    2       1.625000000000        1.000000000000
 l=1 nsto= 1
    2       1.625000000000        1.000000000000
 17 C     2 shells
 l=0 nsto= 1
    2       1.625000000000        1.000000000000
 l=1 nsto= 1
    2       1.625000000000        1.000000000000
 18 H     1 shells
 l=0 nsto= 1
    1       1.200000000000        1.000000000000
 19 H     1 shells
 l=0 nsto= 1
    1       1.200000000000        1.000000000000
 20 H     1 shells
 l=0 nsto= 1
    1       1.200000000000        1.000000000000
 21 H     1 shells
 l=0 nsto= 1
    1       1.200000000000        1.000000000000
 22 H     1 shells
 l=0 nsto= 1
    1       1.200000000000        1.000000000000
 23 H     1 shells
 l=0 nsto= 1
    1       1.200000000000        1.000000000000
 24 H     1 shells
 l=0 nsto= 1
    1       1.200000000000        1.000000000000
 25 C     2 shells
 l=0 nsto= 1
    2       1.625000000000        1.000000000000
 l=1 nsto= 1
    2       1.625000000000        1.000000000000
 26 C     2 shells
 l=0 nsto= 1
    2       1.625000000000        1.000000000000
 l=1 nsto= 1
    2       1.625000000000        1.000000000000
 27 C     2 shells
 l=0 nsto= 1
    2       1.625000000000        1.000000000000
 l=1 nsto= 1
    2       1.625000000000        1.000000000000
 28 C     2 shells
 l=0 nsto= 1
    2       1.625000000000        1.000000000000
 l=1 nsto= 1
    2       1.625000000000        1.000000000000
 29 S     2 shells
 l=0 nsto= 1
    3       1.925000000000        1.000000000000
 l=1 nsto= 1
    3       1.925000000000        1.000000000000
 30 H     1 shells
 l=0 nsto= 1
    1       1.200000000000        1.000000000000
 31 C     2 shells
 l=0 nsto= 1
    2       1.625000000000        1.000000000000
 l=1 nsto= 1
    2       1.625000000000        1.000000000000
 32 C     2 shells
 l=0 nsto= 1
    2       1.625000000000        1.000000000000
 l=1 nsto= 1
    2       1.625000000000        1.000000000000
 33 C     2 shells
 l=0 nsto= 1
    2       1.625000000000        1.000000000000
 l=1 nsto= 1
    2       1.625000000000        1.000000000000
 34 H     1 shells
 l=0 nsto= 1
    1       1.200000000000        1.000000000000
 35 H     1 shells
 l=0 nsto= 1
    1       1.200000000000        1.000000000000
 36 H     1 shells
 l=0 nsto= 1
    1       1.200000000000        1.000000000000
 37 H     1 shells
 l=0 nsto= 1
    1       1.200000000000        1.000000000000
 38 H     1 shells
 l=0 nsto= 1
    1       1.200000000000        1.000000000000
 39 H     1 shells
 l=0 nsto= 1
    1       1.200000000000        1.000000000000
 40 C     2 shells
 l=0 nsto= 1
    2       1.625000000000        1.000000000000
 l=1 nsto= 1
    2       1.625000000000        1.000000000000
 41 C     2 shells
 l=0 nsto= 1
    2       1.625000000000        1.000000000000
 l=1 nsto= 1
    2       1.625000000000        1.000000000000
 42 C     2 shells
 l=0 nsto= 1
    2       1.625000000000        1.000000000000
 l=1 nsto= 1
    2       1.625000000000        1.000000000000
 43 H     1 shells
 l=0 nsto= 1
    1       1.200000000000        1.000000000000
 44 H     1 shells
 l=0 nsto= 1
    1       1.200000000000        1.000000000000
 45 H     1 shells
 l=0 nsto= 1
    1       1.200000000000        1.000000000000
 46 H     1 shells
 l=0 nsto= 1
    1       1.200000000000        1.000000000000
 47 H     1 shells
 l=0 nsto= 1
    1       1.200000000000        1.000000000000
 48 H     1 shells
 l=0 nsto= 1
    1       1.200000000000        1.000000000000
 49 H     1 shells
 l=0 nsto= 1
    1       1.200000000000        1.000000000000
 50 H     1 shells
 l=0 nsto= 1
    1       1.200000000000        1.000000000000
 51 H     1 shells
 l=0 nsto= 1
    1       1.200000000000        1.000000000000
------------------------------------------------------------------------------
                           ORCA NDO INTEGRAL CALCULATION
------------------------------------------------------------------------------

--------------
NDO PARAMETERS
--------------

Gamma integral treatment              ... Mataga-Nishimoto
Nuclear repulsuion treatment          ... Direct (ZA*ZB/RAB)
Interaction factors:
s-s (sigma) =    1.0000
s-p (sigma) =    1.0000
s-d (sigma) =    1.0000
p-p (sigma) =    1.2670  p-p(pi) =    0.5850
p-d (sigma) =    1.0000  p-d(pi) =    1.0000
d-d (sigma) =    1.0000  d-d(pi) =    1.0000 d-d (delta) =    1.0000

fGamma parameter for Mataga-Nishimoto gamma integrals:    1.2000

--------------------------
Parameters for Element H :
--------------------------
 One-electron parameters (in eV)
  U(s)  =   -13.060000 Beta(s) =    12.000000 Neff(s) =     1.000000
 One-center electron repulsion parameters (in eV)
  G(s,s)=    12.850000
--------------------------
Parameters for Element C :
--------------------------
 One-electron parameters (in eV)
  U(s)  =   -50.870766 Beta(s) =    17.000000 Neff(s) =     2.000000
  U(p)  =   -41.599980 Beta(p) =    17.000000 Neff(p) =     2.000000 
 One-center electron repulsion parameters (in eV)
  G(s,s)=    11.110000
  G(s,p)=    11.110000 G(p,p)  =    11.110000
 Slater-Condon parameters (in eV)
 F2(p,p)=     4.5098 G1(s,p)=    6.8977
--------------------------
Parameters for Element S :
--------------------------
 One-electron parameters (in eV)
  U(s)  =   -69.509597 Beta(s) =    15.000000 Neff(s) =     2.000000
  U(p)  =   -60.725746 Beta(p) =    15.000000 Neff(p) =     4.000000 
 One-center electron repulsion parameters (in eV)
  G(s,s)=    10.090000
  G(s,p)=    10.090000 G(p,p)  =    10.090000
 Slater-Condon parameters (in eV)
 F2(p,p)=     4.5377 G1(s,p)=    3.0756

 Number of atoms                    ....   52
 Number of basis functions          ....  118

 Overlap integrals                  .... done
 One electron matrix                .... done
 Nuclear repulsion                  .... done
 Integral list                      .... done
 Electron-electron repulsion        .... done
-------------------------------------------------------------------------------
                                 ORCA SCF
-------------------------------------------------------------------------------

------------
SCF SETTINGS
------------
Hamiltonian:
 ZDO-Hamiltonian        Method          .... INDO


General Settings:
 Integral files         IntName         .... /Users/mattyjones/GoogleDrive/Boise/Code/MorphCT/tests/output_EZ/donor_polymer/chromophores/input_orca/pair/00003-00004
 Hartree-Fock type      HFTyp           .... RHF
 Total Charge           Charge          ....    0
 Multiplicity           Mult            ....    1
 Number of Electrons    NEL             ....  122
 Basis Dimension        Dim             ....  118
 Nuclear Repulsion      ENuc            ....    836.9986546156 Eh

Convergence Acceleration:
 DIIS                   CNVDIIS         .... on
   Start iteration      DIISMaxIt       ....    12
   Startup error        DIISStart       ....  0.200000
   # of expansion vecs  DIISMaxEq       ....     5
   Bias factor          DIISBfac        ....   1.050
   Max. coefficient     DIISMaxC        ....  10.000
 Newton-Raphson         CNVNR           .... off
 SOSCF                  CNVSOSCF        .... on
   Start iteration      SOSCFMaxIt      ....   150
   Startup grad/error   SOSCFStart      ....  0.003300
 Level Shifting         CNVShift        .... on
   Level shift para.    LevelShift      ....    0.2500
   Turn off err/grad.   ShiftErr        ....    0.0010
 Zerner damping         CNVZerner       .... off
 Static damping         CNVDamp         .... on
   Fraction old density DampFac         ....    0.7000
   Max. Damping (<1)    DampMax         ....    0.9800
   Min. Damping (>=0)   DampMin         ....    0.0000
   Turn off err/grad.   DampErr         ....    0.1000
 Fernandez-Rico         CNVRico         .... off

SCF Procedure:
 Maximum # iterations   MaxIter         ....   125
 SCF integral mode      SCFMode         .... Conventional
 Integral Buffer length BufferLength    .... 1048576
 Integral index format  IndFormat       ....     0
 Integral value format  ValFormat       ....     0
 Integral Storage       Thresh          ....  1.000e-08 Eh

Convergence Tolerance:
 Convergence Check Mode ConvCheckMode   .... Total+1el-Energy
 Energy Change          TolE            ....  1.000e-06 Eh
 1-El. energy change                    ....  1.000e-03 Eh
 Orbital Gradient       TolG            ....  5.000e-05
 Orbital Rotation angle TolX            ....  5.000e-05
 DIIS Error             TolErr          ....  1.000e-06


Diagonalization of the overlap matrix:
Smallest eigenvalue                        ... 1.671e-01
Time for diagonalization                   ...    0.003 sec
Threshold for overlap eigenvalues          ... 1.000e-08
Number of eigenvalues below threshold      ... 0
Time for construction of square roots      ...    0.001 sec
Total time needed                          ...    0.004 sec

-------------------------------
INITIAL GUESS: EXTENDED HUECKEL
-------------------------------
EHT matrix was read from disk
EHT matrix was diagonalized
Initial density was built
                      ------------------
                      INITIAL GUESS DONE
                      ------------------

 InCore treatment chosen:
   Memory dedicated               ...    1024 MB
   Memory needed                  ...      0 MB
   Number of tiny    integrals    ...       0
   Number of small   integrals    ...       0
   Number of regular integrals    ...    7153

--------------
SCF ITERATIONS
--------------
ITER       Energy         Delta-E        Max-DP      RMS-DP      [F,P]     Damp
  0     -5.8198607904   0.000000000000 0.04084694  0.00145663  0.1146319 0.7000
  1     -5.8607120331  -0.040851242763 0.03845297  0.00137912  0.0789456 0.7000
                               ***Turning on DIIS***
  2     -5.8912571310  -0.030545097870 0.09713821  0.00356686  0.0484093 0.0000
  3     -5.9771706560  -0.085913524953 0.01975126  0.00076833  0.0205674 0.0000
  4     -5.9527652904   0.024405365544 0.01065366  0.00053199  0.0062225 0.0000
  5     -5.9711335150  -0.018368224558 0.00729292  0.00035662  0.0035761 0.0000
  6     -5.9741084550  -0.002974940023 0.00497610  0.00026025  0.0019291 0.0000
                      *** Initiating the SOSCF procedure ***
                           *** Shutting down DIIS ***
                      *** Re-Reading the Fockian *** 
                      *** Removing any level shift *** 
ITER      Energy       Delta-E        Grad      Rot      Max-DP    RMS-DP
  7     -5.97139504   0.0027134178  0.002656  0.002656  0.003113  0.000152
  8     -5.97137663   0.0000184073  0.000756  0.002187  0.001721  0.000078
  9     -5.97139771  -0.0000210792  0.000315  0.002049  0.002027  0.000085
 10     -5.97140573  -0.0000080208  0.000035  0.000088  0.000129  0.000005
                 **** Energy Check signals convergence ****
              ***Rediagonalizing the Fockian in SOSCF/NRSCF***

               *****************************************************
               *                     SUCCESS                       *
               *           SCF CONVERGED AFTER  11 CYCLES          *
               *****************************************************


----------------
TOTAL SCF ENERGY
----------------

Total Energy       :           -5.97140582 Eh            -162.49021 eV

Components:
Nuclear Repulsion  :          836.99865462 Eh           22775.89130 eV
Electronic Energy  :         -842.97006043 Eh          -22938.38151 eV

One Electron Energy:        -1597.12138119 Eh          -43459.88224 eV
Two Electron Energy:          754.15132076 Eh           20521.50073 eV


---------------
SCF CONVERGENCE
---------------

  Last Energy change         ...   -8.7454e-08  Tolerance :   1.0000e-06
  Last MAX-Density change    ...    7.5098e-05  Tolerance :   1.0000e-05
  Last RMS-Density change    ...    2.2786e-06  Tolerance :   1.0000e-06
  Last Orbital Gradient      ...    2.1181e-05  Tolerance :   5.0000e-05
  Last Orbital Rotation      ...    7.3572e-05  Tolerance :   5.0000e-05

             **** THE GBW FILE WAS UPDATED (/Users/mattyjones/GoogleDrive/Boise/Code/MorphCT/tests/output_EZ/donor_polymer/chromophores/input_orca/pair/00003-00004.gbw) ****
             **** DENSITY FILE WAS UPDATED (/Users/mattyjones/GoogleDrive/Boise/Code/MorphCT/tests/output_EZ/donor_polymer/chromophores/input_orca/pair/00003-00004.scfp.tmp) ****
             **** ENERGY FILE WAS UPDATED (/Users/mattyjones/GoogleDrive/Boise/Code/MorphCT/tests/output_EZ/donor_polymer/chromophores/input_orca/pair/00003-00004.en.tmp) ****
----------------
ORBITAL ENERGIES
----------------

  NO   OCC          E(Eh)            E(eV) 
   0   2.0000      -1.568656       -42.6853 
   1   2.0000      -1.540319       -41.9142 
   2   2.0000      -1.413169       -38.4543 
   3   2.0000      -1.382437       -37.6180 
   4   2.0000      -1.285538       -34.9813 
   5   2.0000      -1.277459       -34.7614 
   6   2.0000      -1.200647       -32.6713 
   7   2.0000      -1.177710       -32.0471 
   8   2.0000      -1.145709       -31.1763 
   9   2.0000      -1.066195       -29.0126 
  10   2.0000      -1.055058       -28.7096 
  11   2.0000      -1.023253       -27.8441 
  12   2.0000      -0.986882       -26.8544 
  13   2.0000      -0.962620       -26.1942 
  14   2.0000      -0.917328       -24.9618 
  15   2.0000      -0.897667       -24.4268 
  16   2.0000      -0.868436       -23.6313 
  17   2.0000      -0.847616       -23.0648 
  18   2.0000      -0.829497       -22.5718 
  19   2.0000      -0.791275       -21.5317 
  20   2.0000      -0.763247       -20.7690 
  21   2.0000      -0.741316       -20.1722 
  22   2.0000      -0.719560       -19.5802 
  23   2.0000      -0.700061       -19.0496 
  24   2.0000      -0.682853       -18.5814 
  25   2.0000      -0.680482       -18.5169 
  26   2.0000      -0.678342       -18.4586 
  27   2.0000      -0.667284       -18.1577 
  28   2.0000      -0.650415       -17.6987 
  29   2.0000      -0.638156       -17.3651 
  30   2.0000      -0.608801       -16.5663 
  31   2.0000      -0.601425       -16.3656 
  32   2.0000      -0.590572       -16.0703 
  33   2.0000      -0.587170       -15.9777 
  34   2.0000      -0.584078       -15.8936 
  35   2.0000      -0.577432       -15.7127 
  36   2.0000      -0.553499       -15.0615 
  37   2.0000      -0.549990       -14.9660 
  38   2.0000      -0.544041       -14.8041 
  39   2.0000      -0.535151       -14.5622 
  40   2.0000      -0.528563       -14.3829 
  41   2.0000      -0.523347       -14.2410 
  42   2.0000      -0.515266       -14.0211 
  43   2.0000      -0.506102       -13.7717 
  44   2.0000      -0.503533       -13.7018 
  45   2.0000      -0.498822       -13.5736 
  46   2.0000      -0.497879       -13.5480 
  47   2.0000      -0.489226       -13.3125 
  48   2.0000      -0.482399       -13.1268 
  49   2.0000      -0.475149       -12.9295 
  50   2.0000      -0.473151       -12.8751 
  51   2.0000      -0.465756       -12.6739 
  52   2.0000      -0.460201       -12.5227 
  53   2.0000      -0.456654       -12.4262 
  54   2.0000      -0.449768       -12.2388 
  55   2.0000      -0.440127       -11.9765 
  56   2.0000      -0.427270       -11.6266 
  57   2.0000      -0.359943        -9.7946 
  58   2.0000      -0.353994        -9.6327 
  59   2.0000      -0.329448        -8.9647 
  60   2.0000      -0.281487        -7.6596 
  61   0.0000      -0.014221        -0.3870 
  62   0.0000       0.016831         0.4580 
  63   0.0000       0.040479         1.1015 
  64   0.0000       0.054031         1.4703 
  65   0.0000       0.059057         1.6070 
  66   0.0000       0.073824         2.0089 
  67   0.0000       0.081502         2.2178 
  68   0.0000       0.085135         2.3166 
  69   0.0000       0.091923         2.5014 
  70   0.0000       0.100165         2.7256 
  71   0.0000       0.103840         2.8256 
  72   0.0000       0.117337         3.1929 
  73   0.0000       0.122024         3.3204 
  74   0.0000       0.134429         3.6580 
  75   0.0000       0.140905         3.8342 
  76   0.0000       0.147493         4.0135 
  77   0.0000       0.156928         4.2702 
  78   0.0000       0.161344         4.3904 
  79   0.0000       0.164457         4.4751 
  80   0.0000       0.171987         4.6800 
  81   0.0000       0.173026         4.7083 
  82   0.0000       0.185571         5.0497 
  83   0.0000       0.201996         5.4966 
  84   0.0000       0.206124         5.6089 
  85   0.0000       0.226097         6.1524 
  86   0.0000       0.232165         6.3175 
  87   0.0000       0.232280         6.3206 
  88   0.0000       0.233777         6.3614 
  89   0.0000       0.235159         6.3990 
  90   0.0000       0.236929         6.4472 
  91   0.0000       0.237124         6.4525 
  92   0.0000       0.238776         6.4974 
  93   0.0000       0.239628         6.5206 
  94   0.0000       0.240610         6.5473 
  95   0.0000       0.241497         6.5715 
  96   0.0000       0.241626         6.5750 
  97   0.0000       0.244397         6.6504 
  98   0.0000       0.244764         6.6604 
  99   0.0000       0.246296         6.7020 
 100   0.0000       0.247330         6.7302 
 101   0.0000       0.254332         6.9207 
 102   0.0000       0.262574         7.1450 
 103   0.0000       0.265066         7.2128 
 104   0.0000       0.274286         7.4637 
 105   0.0000       0.287815         7.8318 
 106   0.0000       0.289604         7.8805 
 107   0.0000       0.306324         8.3355 
 108   0.0000       0.307126         8.3573 
 109   0.0000       0.318948         8.6790 
 110   0.0000       0.334167         9.0931 
 111   0.0000       0.340755         9.2724 
 112   0.0000       0.353643         9.6231 
 113   0.0000       0.363417         9.8891 
 114   0.0000       0.393832        10.7167 
 115   0.0000       0.414882        11.2895 
 116   0.0000       0.433021        11.7831 
 117   0.0000       0.461689        12.5632 
-------
TIMINGS
-------

Total SCF time: 0 days 0 hours 0 min 0 sec 

Total time                  ....       0.125 sec
Sum of individual times     ....       0.101 sec  ( 80.5%)

Fock matrix formation       ....       0.050 sec  ( 40.2%)
Diagonalization             ....       0.020 sec  ( 16.4%)
Density matrix formation    ....       0.005 sec  (  3.8%)
Population analysis         ....       0.000 sec  (  0.0%)
Initial guess               ....       0.003 sec  (  2.1%)
Orbital Transformation      ....       0.000 sec  (  0.0%)
Orbital Orthonormalization  ....       0.000 sec  (  0.0%)
DIIS solution               ....       0.017 sec  ( 13.3%)
SOSCF solution              ....       0.006 sec  (  4.7%)

-------------------------   --------------------
FINAL SINGLE POINT ENERGY        -5.971405817423
-------------------------   --------------------


                            ***************************************
                            *     ORCA property calculations      *
                            ***************************************

                                    ---------------------
                                    Active property flags
                                    ---------------------
   (+) Dipole Moment


------------------------------------------------------------------------------
                       ORCA ELECTRIC PROPERTIES CALCULATION
------------------------------------------------------------------------------

Dipole Moment Calculation                       ... on
Quadrupole Moment Calculation                   ... off
Polarizability Calculation                      ... off
GBWName                                         ... /Users/mattyjones/GoogleDrive/Boise/Code/MorphCT/tests/output_EZ/donor_polymer/chromophores/input_orca/pair/00003-00004.gbw
Electron density file                           ... /Users/mattyjones/GoogleDrive/Boise/Code/MorphCT/tests/output_EZ/donor_polymer/chromophores/input_orca/pair/00003-00004.scfp.tmp

-------------
DIPOLE MOMENT
-------------
                                X             Y             Z
Electronic contribution:     20.65054       1.52024     -12.17457
Nuclear contribution   :    -11.65652      -1.34937       6.49577
                        -----------------------------------------
Total Dipole Moment    :      8.99402       0.17087      -5.67880
                        -----------------------------------------
Magnitude (a.u.)       :     10.63815
Magnitude (Debye)      :     27.04004


Timings for individual modules:

Sum of individual times         ...        0.225 sec (=   0.004 min)
STO integral calculation        ...        0.064 sec (=   0.001 min)  28.4 %
SCF iterations                  ...        0.161 sec (=   0.003 min)  71.6 %
                             ****ORCA TERMINATED NORMALLY****
TOTAL RUN TIME: 0 days 0 hours 0 minutes 0 seconds 554 msec

